----- GAMESS execution script 'rungms' -----
This job is running on host firzens
under operating system Linux at Thu Aug 10 21:19:15 IST 2017
Available scratch disk space (Kbyte units) at beginning of the job is
Filesystem     1K-blocks      Used Available Use% Mounted on
/dev/sda11     254243428 235004436   6301112  98% /
GAMESS temporary binary files will be written to /scr/sagar
GAMESS supplementary output files will be written to /home/sagar/gamess/scratch
Copying input file dvb_gopt_a.inp to your run's scratch directory...
 
Assuming a single but multicore node.
 

 Distributed Data Interface kickoff program.
 Initiating 4 compute processes on 1 nodes to run the following command:
 /home/sagar/gamess/gamess.02.x dvb_gopt_a 

          ******************************************************
          *         GAMESS VERSION = 20 APR 2017 (R1)          *
          *             FROM IOWA STATE UNIVERSITY             *
          * M.W.SCHMIDT, K.K.BALDRIDGE, J.A.BOATZ, S.T.ELBERT, *
          *   M.S.GORDON, J.H.JENSEN, S.KOSEKI, N.MATSUNAGA,   *
          *          K.A.NGUYEN, S.J.SU, T.L.WINDUS,           *
          *       TOGETHER WITH M.DUPUIS, J.A.MONTGOMERY       *
          *         J.COMPUT.CHEM.  14, 1347-1363(1993)        *
          **************** 64 BIT LINUX VERSION ****************

  SINCE 1993, STUDENTS AND POSTDOCS WORKING AT IOWA STATE UNIVERSITY
  AND ALSO IN THEIR VARIOUS JOBS AFTER LEAVING ISU HAVE MADE IMPORTANT
  CONTRIBUTIONS TO THE CODE:
     IVANA ADAMOVIC, CHRISTINE AIKENS, YURI ALEXEEV, POOJA ARORA,
     ANDREY ASADCHEV, ROB BELL, PRADIPTA BANDYOPADHYAY, JONATHAN BENTZ,
     BRETT BODE, KURT BRORSEN, CALEB CARLIN, GALINA CHABAN, WEI CHEN,
     CHEOL HO CHOI, PAUL DAY, ALBERT DEFUSCO, NUWAN DESILVA, TIM DUDLEY,
     DMITRI FEDOROV, GRAHAM FLETCHER, MARK FREITAG, KURT GLAESEMANN,
     DAN KEMP, GRANT MERRILL, NORIYUKI MINEZAWA, JONATHAN MULLIN,
     TAKESHI NAGATA, SEAN NEDD, HEATHER NETZLOFF, BOSILJKA NJEGIC, RYAN OLSON,
     MIKE PAK, SPENCER PRUITT, LUKE ROSKOP, JIM SHOEMAKER, LYUDMILA SLIPCHENKO,
     TONY SMITH, SAROM SOK LEANG, JIE SONG, TETSUYA TAKETSUGU, SIMON WEBB,
     PENG XU, SOOHAENG YOO, FEDERICO ZAHARIEV

  ADDITIONAL CODE HAS BEEN PROVIDED BY COLLABORATORS IN OTHER GROUPS:
     IOWA STATE UNIVERSITY:
          JOE IVANIC, AARON WEST, LAIMUTIS BYTAUTAS, KLAUS RUEDENBERG
     UNIVERSITY OF TOKYO: KIMIHIKO HIRAO, TAKAHITO NAKAJIMA,
          TAKAO TSUNEDA, MUNEAKI KAMIYA, SUSUMU YANAGISAWA,
          KIYOSHI YAGI, MAHITO CHIBA, SEIKEN TOKURA, NAOAKI KAWAKAMI
     UNIVERSITY OF AARHUS: FRANK JENSEN
     UNIVERSITY OF IOWA: VISVALDAS KAIRYS, HUI LI
     NATIONAL INST. OF STANDARDS AND TECHNOLOGY: WALT STEVENS, DAVID GARMER
     UNIVERSITY OF PISA: BENEDETTA MENNUCCI, JACOPO TOMASI
     UNIVERSITY OF MEMPHIS: HENRY KURTZ, PRAKASHAN KORAMBATH
     UNIVERSITY OF ALBERTA: TOBY ZENG, MARIUSZ KLOBUKOWSKI
     UNIVERSITY OF NEW ENGLAND: MARK SPACKMAN
     MIE UNIVERSITY: HIROAKI UMEDA
     NAT. INST. OF ADVANCED INDUSTRIAL SCIENCE AND TECHNOLOGY: KAZUO KITAURA
     MICHIGAN STATE UNIVERSITY:
          KAROL KOWALSKI, MARTA WLOCH, JEFFREY GOUR, JESSE LUTZ,
          WEI LI, PIOTR PIECUCH
     UNIVERSITY OF SILESIA: MONIKA MUSIAL, STANISLAW KUCHARSKI
     FACULTES UNIVERSITAIRES NOTRE-DAME DE LA PAIX:
          OLIVIER QUINET, BENOIT CHAMPAGNE
     UNIVERSITY OF CALIFORNIA - SANTA BARBARA: BERNARD KIRTMAN
     INSTITUTE FOR MOLECULAR SCIENCE:
          KAZUYA ISHIMURA, MICHIO KATOUDA, AND SHIGERU NAGASE
     UNIVERSITY OF NOTRE DAME: ANNA POMOGAEVA, DAN CHIPMAN
     KYUSHU UNIVERSITY:
          HARUYUKI NAKANO,
          FENG LONG GU, JACEK KORCHOWIEC, MARCIN MAKOWSKI, AND YURIKO AOKI,
          HIROTOSHI MORI AND EISAKU MIYOSHI
     PENNSYLVANIA STATE UNIVERSITY:
          TZVETELIN IORDANOV, CHET SWALINA, JONATHAN SKONE,
          SHARON HAMMES-SCHIFFER
     WASEDA UNIVERSITY:
          MASATO KOBAYASHI, TOMOKO AKAMA, TSUGUKI TOUMA,
          TAKESHI YOSHIKAWA, YASUHIRO IKABATA, JUNJI SEINO,
          YUYA NAKAJIMA, HIROMI NAKAI
     NANJING UNIVERSITY: SHUHUA LI
     UNIVERSITY OF NEBRASKA:
          PEIFENG SU, DEJUN SI, NANDUN THELLAMUREGE, YALI WANG, HUI LI
     UNIVERSITY OF ZURICH: ROBERTO PEVERATI, KIM BALDRIDGE
     N. COPERNICUS UNIVERSITY AND JACKSON STATE UNIVERSITY:
          MARIA BARYSZ
     UNIVERSITY OF COPENHAGEN: Jimmy Kromann, CASPER STEINMANN
     TOKYO INSTITUTE OF TECHNOLOGY: HIROYA NAKATA
     NAGOYA UNIVERSITY: YOSHIO NISHIMOTO, STEPHAN IRLE
     MOSCOW STATE UNIVERSITY: VLADIMIR MIRONOV


 PARALLEL VERSION RUNNING ON        4 PROCESSORS IN        1 NODES.

 EXECUTION OF GAMESS BEGUN Thu Aug 10 21:19:15 2017

            ECHO OF THE FIRST FEW INPUT CARDS -
 INPUT CARD> $CONTRL COORD=PRINAXIS UNITS=ANGS                                              
 INPUT CARD>         RUNTYP=OPTIMIZE SCFTYP=RHF DFTTYP=B3LYP                                
 INPUT CARD>         AIMPAC=.t. $END                                                        
 INPUT CARD> $STATPT OPTTOL=1.0E-4  NSTEP=40 $END                                           
 INPUT CARD> $BASIS  GBASIS=STO NGAUSS=3 $END                                               
 INPUT CARD> $GUESS  GUESS=HUCKEL $END                                                      
 INPUT CARD> $DATA                                                                          
 INPUT CARD>divinylbenzene                                                                  
 INPUT CARD>C1                                                                              
 INPUT CARD> C   6         -1.4152533224    0.2302217854    0.0000000000                    
 INPUT CARD> C   6          1.4152533224   -0.2302217854    0.0000000000                    
 INPUT CARD> C   6         -0.4951331558    1.3144608674    0.0000000000                    
 INPUT CARD> C   6          0.4951331558   -1.3144608674    0.0000000000                    
 INPUT CARD> C   6          0.8894090436    1.0909493743    0.0000000000                    
 INPUT CARD> C   6         -0.8894090436   -1.0909493743    0.0000000000                    
 INPUT CARD> H   1         -0.8795511985    2.3437343748    0.0000000000                    
 INPUT CARD> H   1          0.8795511985   -2.3437343748    0.0000000000                    
 INPUT CARD> H   1          1.5779041557    1.9450061275    0.0000000000                    
 INPUT CARD> H   1         -1.5779041557   -1.9450061275    0.0000000000                    
 INPUT CARD> C   6          2.8845844962   -0.5210893778    0.0000000000                    
 INPUT CARD> C   6         -2.8845844962    0.5210893778    0.0000000000                    
 INPUT CARD> H   1          3.1403356810   -1.5919605685    0.0000000000                    
 INPUT CARD> H   1         -3.1403356810    1.5919605685    0.0000000000                    
 INPUT CARD> C   6          3.8800428103    0.3822535424    0.0000000000                    
 INPUT CARD> C   6         -3.8800428103   -0.3822535424    0.0000000000                    
 INPUT CARD> H   1          3.6946765858    1.4624389570    0.0000000000                    
 INPUT CARD> H   1         -3.6946765858   -1.4624389570    0.0000000000                    
 INPUT CARD> H   1          4.9316453546    0.0711049543    0.0000000000                    
 INPUT CARD> H   1         -4.9316453546   -0.0711049543    0.0000000000                    
 INPUT CARD>$END                                                                            
 INPUT CARD>                                                                                
    1000000 WORDS OF MEMORY AVAILABLE

     BASIS OPTIONS
     -------------
     GBASIS=STO          IGAUSS=       3      POLAR=NONE    
     NDFUNC=       0     NFFUNC=       0     DIFFSP=       F
     NPFUNC=       0      DIFFS=       F     BASNAM=        


     RUN TITLE
     ---------
 divinylbenzene                                                                  

 THE POINT GROUP OF THE MOLECULE IS C1      
 THE ORDER OF THE PRINCIPAL AXIS IS     0

 THE MOMENTS OF INERTIA ARE (AMU-ANGSTROM**2)
 IXX=   109.440   IYY=   736.960   IZZ=   846.400

 ATOM      ATOMIC                      COORDINATES (BOHR)
           CHARGE         X                   Y                   Z
 C           6.0    -2.6723873767        0.4474975755        0.0000000000
 C           6.0     2.6723873767       -0.4474975755        0.0000000000
 C           6.0    -0.9240960654        2.4882983238        0.0000000000
 C           6.0     0.9240960654       -2.4882983238        0.0000000000
 C           6.0     1.6903153450        2.0537513083        0.0000000000
 C           6.0    -1.6903153450       -2.0537513083        0.0000000000
 H           1.0    -1.6414811999        4.4367028535        0.0000000000
 H           1.0     1.6414811999       -4.4367028535        0.0000000000
 H           1.0     2.9988792133        3.6616122240        0.0000000000
 H           1.0    -2.9988792133       -3.6616122240        0.0000000000
 C           6.0     5.4464326291       -1.0100734457        0.0000000000
 C           6.0    -5.4464326291        1.0100734457        0.0000000000
 H           1.0     5.9203094679       -3.0359538093        0.0000000000
 H           1.0    -5.9203094679        3.0359538093        0.0000000000
 C           6.0     7.3354999945        0.6882242783        0.0000000000
 C           6.0    -7.3354999945       -0.6882242783        0.0000000000
 H           1.0     6.9947119163        2.7310867941        0.0000000000
 H           1.0    -6.9947119163       -2.7310867941        0.0000000000
 H           1.0     9.3199827904        0.0909969393        0.0000000000
 H           1.0    -9.3199827904       -0.0909969393        0.0000000000

          INTERNUCLEAR DISTANCES (ANGS.)
          ------------------------------

                1 C          2 C          3 C          4 C          5 C     

   1 C       0.0000000    2.8677127 *  1.4220392 *  2.4567501 *  2.4601465 *
   2 C       2.8677127 *  0.0000000    2.4567501 *  1.4220392 *  1.4219724 *
   3 C       1.4220392 *  2.4567501 *  0.0000000    2.8092449 *  1.4024673 *
   4 C       2.4567501 *  1.4220392 *  2.8092449 *  0.0000000    2.4375094 *
   5 C       2.4601465 *  1.4219724 *  1.4024673 *  2.4375094 *  0.0000000  
   6 C       1.4219724 *  2.4601465 *  2.4375094 *  1.4024673 *  2.8151156 *
   7 H       2.1803468 *  3.4483878    1.0987180 *  3.9079598    2.1676463 *
   8 H       3.4483878    2.1803468 *  3.9079598    1.0987180 *  3.4346979  
   9 H       3.4495619    2.1813005 *  2.1668113 *  3.4346060    1.0970134 *
  10 H       2.1813005 *  3.4495619    3.4346060    2.1668113 *  3.9121171  
  11 C       4.3649827    1.4978445 *  3.8460026    2.5177204 *  2.5650329 *
  12 C       1.4978445 *  4.3649827    2.5177204 *  3.8460026    3.8167745  
  13 H       4.9064997    2.1977811 *  4.6544515    2.6597185 *  3.5020960  
  14 H       2.1977811 *  4.9064997    2.6597185 *  4.6544515    4.0607702  
  15 C       5.2974782    2.5397467 *  4.4733852    3.7863509    3.0734574  
  16 C       2.5397467 *  5.2974782    3.7863509    4.4733852    4.9917930  
  17 H       5.2564002    2.8391673 *  4.1924221    4.2365376    2.8297580 *
  18 H       2.8391673 *  5.2564002    4.2365376    4.1924221    5.2472500  
  19 H       6.3488929    3.5292791    5.5673925    4.6478418    4.1689036  
  20 H       3.5292791    6.3488929    4.6478418    5.5673925    5.9359114  

                6 C          7 H          8 H          9 H         10 H     

   1 C       1.4219724 *  2.1803468 *  3.4483878    3.4495619    2.1813005 *
   2 C       2.4601465 *  3.4483878    2.1803468 *  2.1813005 *  3.4495619  
   3 C       2.4375094 *  1.0987180 *  3.9079598    2.1668113 *  3.4346060  
   4 C       1.4024673 *  3.9079598    1.0987180 *  3.4346060    2.1668113 *
   5 C       2.8151156 *  2.1676463 *  3.4346979    1.0970134 *  3.9121171  
   6 C       0.0000000    3.4346979    2.1676463 *  3.9121171    1.0970134 *
   7 H       3.4346979    0.0000000    5.0066760    2.4895925 *  4.3452263  
   8 H       2.1676463 *  5.0066760    0.0000000    4.3452263    2.4895925 *
   9 H       3.9121171    2.4895925 *  4.3452263    0.0000000    5.0091238  
  10 H       1.0970134 *  4.3452263    2.4895925 *  5.0091238    0.0000000  
  11 C       3.8167745    4.7303206    2.7096482 *  2.7908853 *  4.6841588  
  12 C       2.5650329 *  2.7096482 *  4.7303206    4.6841588    2.7908853 *
  13 H       4.0607702    5.6257609    2.3825009 *  3.8666944    4.7314298  
  14 H       3.5020960    2.3825009 *  5.6257609    4.7314298    3.8666944  
  15 C       4.9917930    5.1479260    4.0538821    2.7824518 *  5.9334073  
  16 C       3.0734574    4.0538821    5.1479260    5.9334073    2.7824518 *
  17 H       5.2472500    4.6583518    4.7341194    2.1710819 *  6.2778013  
  18 H       2.8297580 *  4.7341194    4.6583518    6.2778013    2.1710819 *
  19 H       5.9359114    6.2397796    4.7170877    3.8417555    6.8146121  
  20 H       4.1689036    4.7170877    6.2397796    6.8146121    3.8417555  

               11 C         12 C         13 H         14 H         15 C     

   1 C       4.3649827    1.4978445 *  4.9064997    2.1977811 *  5.2974782  
   2 C       1.4978445 *  4.3649827    2.1977811 *  4.9064997    2.5397467 *
   3 C       3.8460026    2.5177204 *  4.6544515    2.6597185 *  4.4733852  
   4 C       2.5177204 *  3.8460026    2.6597185 *  4.6544515    3.7863509  
   5 C       2.5650329 *  3.8167745    3.5020960    4.0607702    3.0734574  
   6 C       3.8167745    2.5650329 *  4.0607702    3.5020960    4.9917930  
   7 H       4.7303206    2.7096482 *  5.6257609    2.3825009 *  5.1479260  
   8 H       2.7096482 *  4.7303206    2.3825009 *  5.6257609    4.0538821  
   9 H       2.7908853 *  4.6841588    3.8666944    4.7314298    2.7824518 *
  10 H       4.6841588    2.7908853 *  4.7314298    3.8666944    5.9334073  
  11 C       0.0000000    5.8625462    1.1009876 *  6.3847195    1.3442342 *
  12 C       5.8625462    0.0000000    6.3847195    1.1009876 *  6.7660519  
  13 H       1.1009876 *  6.3847195    0.0000000    7.0416040    2.1082429 *
  14 H       6.3847195    1.1009876 *  7.0416040    0.0000000    7.1238406  
  15 C       1.3442342 *  6.7660519    2.1082429 *  7.1238406    0.0000000  
  16 C       6.7660519    1.3442342 *  7.1238406    2.1082429 *  7.7976535  
  17 H       2.1425765 *  6.6462633    3.1042955    6.8362394    1.0959750 *
  18 H       6.6462633    2.1425765 *  6.8362394    3.1042955    7.7961057  
  19 H       2.1309980 *  7.8291721    2.4442948 *  8.2140051    1.0966683 *
  20 H       7.8291721    2.1309980 *  8.2140051    2.4442948 *  8.8233430  

               16 C         17 H         18 H         19 H         20 H     

   1 C       2.5397467 *  5.2564002    2.8391673 *  6.3488929    3.5292791  
   2 C       5.2974782    2.8391673 *  5.2564002    3.5292791    6.3488929  
   3 C       3.7863509    4.1924221    4.2365376    5.5673925    4.6478418  
   4 C       4.4733852    4.2365376    4.1924221    4.6478418    5.5673925  
   5 C       4.9917930    2.8297580 *  5.2472500    4.1689036    5.9359114  
   6 C       3.0734574    5.2472500    2.8297580 *  5.9359114    4.1689036  
   7 H       4.0538821    4.6583518    4.7341194    6.2397796    4.7170877  
   8 H       5.1479260    4.7341194    4.6583518    4.7170877    6.2397796  
   9 H       5.9334073    2.1710819 *  6.2778013    3.8417555    6.8146121  
  10 H       2.7824518 *  6.2778013    2.1710819 *  6.8146121    3.8417555  
  11 C       6.7660519    2.1425765 *  6.6462633    2.1309980 *  7.8291721  
  12 C       1.3442342 *  6.6462633    2.1425765 *  7.8291721    2.1309980 *
  13 H       7.1238406    3.1042955    6.8362394    2.4442948 *  8.2140051  
  14 H       2.1082429 *  6.8362394    3.1042955    8.2140051    2.4442948 *
  15 C       7.7976535    1.0959750 *  7.7961057    1.0966683 *  8.8233430  
  16 C       0.0000000    7.7961057    1.0959750 *  8.8233430    1.0966683 *
  17 H       7.7961057    0.0000000    7.9471662    1.8616933 *  8.7615745  
  18 H       1.0959750 *  7.9471662    0.0000000    8.7615745    1.8616933 *
  19 H       8.8233430    1.8616933 *  8.7615745    0.0000000    9.8643159  
  20 H       1.0966683 *  8.7615745    1.8616933 *  9.8643159    0.0000000  

  * ... LESS THAN  3.000


     ATOMIC BASIS SET
     ----------------
 THE CONTRACTED PRIMITIVE FUNCTIONS HAVE BEEN UNNORMALIZED
 THE CONTRACTED BASIS FUNCTIONS ARE NOW NORMALIZED TO UNITY

  SHELL TYPE  PRIMITIVE        EXPONENT          CONTRACTION COEFFICIENT(S)

 C         

      1   S       1            71.6168373    0.154328967295
      1   S       2            13.0450963    0.535328142282
      1   S       3             3.5305122    0.444634542185

      2   L       4             2.9412494   -0.099967229187    0.155916274999
      2   L       5             0.6834831    0.399512826089    0.607683718598
      2   L       6             0.2222899    0.700115468880    0.391957393099

 C         

      3   S       7            71.6168373    0.154328967295
      3   S       8            13.0450963    0.535328142282
      3   S       9             3.5305122    0.444634542185

      4   L      10             2.9412494   -0.099967229187    0.155916274999
      4   L      11             0.6834831    0.399512826089    0.607683718598
      4   L      12             0.2222899    0.700115468880    0.391957393099

 C         

      5   S      13            71.6168373    0.154328967295
      5   S      14            13.0450963    0.535328142282
      5   S      15             3.5305122    0.444634542185

      6   L      16             2.9412494   -0.099967229187    0.155916274999
      6   L      17             0.6834831    0.399512826089    0.607683718598
      6   L      18             0.2222899    0.700115468880    0.391957393099

 C         

      7   S      19            71.6168373    0.154328967295
      7   S      20            13.0450963    0.535328142282
      7   S      21             3.5305122    0.444634542185

      8   L      22             2.9412494   -0.099967229187    0.155916274999
      8   L      23             0.6834831    0.399512826089    0.607683718598
      8   L      24             0.2222899    0.700115468880    0.391957393099

 C         

      9   S      25            71.6168373    0.154328967295
      9   S      26            13.0450963    0.535328142282
      9   S      27             3.5305122    0.444634542185

     10   L      28             2.9412494   -0.099967229187    0.155916274999
     10   L      29             0.6834831    0.399512826089    0.607683718598
     10   L      30             0.2222899    0.700115468880    0.391957393099

 C         

     11   S      31            71.6168373    0.154328967295
     11   S      32            13.0450963    0.535328142282
     11   S      33             3.5305122    0.444634542185

     12   L      34             2.9412494   -0.099967229187    0.155916274999
     12   L      35             0.6834831    0.399512826089    0.607683718598
     12   L      36             0.2222899    0.700115468880    0.391957393099

 H         

     13   S      37             3.4252509    0.154328967295
     13   S      38             0.6239137    0.535328142282
     13   S      39             0.1688554    0.444634542185

 H         

     14   S      40             3.4252509    0.154328967295
     14   S      41             0.6239137    0.535328142282
     14   S      42             0.1688554    0.444634542185

 H         

     15   S      43             3.4252509    0.154328967295
     15   S      44             0.6239137    0.535328142282
     15   S      45             0.1688554    0.444634542185

 H         

     16   S      46             3.4252509    0.154328967295
     16   S      47             0.6239137    0.535328142282
     16   S      48             0.1688554    0.444634542185

 C         

     17   S      49            71.6168373    0.154328967295
     17   S      50            13.0450963    0.535328142282
     17   S      51             3.5305122    0.444634542185

     18   L      52             2.9412494   -0.099967229187    0.155916274999
     18   L      53             0.6834831    0.399512826089    0.607683718598
     18   L      54             0.2222899    0.700115468880    0.391957393099

 C         

     19   S      55            71.6168373    0.154328967295
     19   S      56            13.0450963    0.535328142282
     19   S      57             3.5305122    0.444634542185

     20   L      58             2.9412494   -0.099967229187    0.155916274999
     20   L      59             0.6834831    0.399512826089    0.607683718598
     20   L      60             0.2222899    0.700115468880    0.391957393099

 H         

     21   S      61             3.4252509    0.154328967295
     21   S      62             0.6239137    0.535328142282
     21   S      63             0.1688554    0.444634542185

 H         

     22   S      64             3.4252509    0.154328967295
     22   S      65             0.6239137    0.535328142282
     22   S      66             0.1688554    0.444634542185

 C         

     23   S      67            71.6168373    0.154328967295
     23   S      68            13.0450963    0.535328142282
     23   S      69             3.5305122    0.444634542185

     24   L      70             2.9412494   -0.099967229187    0.155916274999
     24   L      71             0.6834831    0.399512826089    0.607683718598
     24   L      72             0.2222899    0.700115468880    0.391957393099

 C         

     25   S      73            71.6168373    0.154328967295
     25   S      74            13.0450963    0.535328142282
     25   S      75             3.5305122    0.444634542185

     26   L      76             2.9412494   -0.099967229187    0.155916274999
     26   L      77             0.6834831    0.399512826089    0.607683718598
     26   L      78             0.2222899    0.700115468880    0.391957393099

 H         

     27   S      79             3.4252509    0.154328967295
     27   S      80             0.6239137    0.535328142282
     27   S      81             0.1688554    0.444634542185

 H         

     28   S      82             3.4252509    0.154328967295
     28   S      83             0.6239137    0.535328142282
     28   S      84             0.1688554    0.444634542185

 H         

     29   S      85             3.4252509    0.154328967295
     29   S      86             0.6239137    0.535328142282
     29   S      87             0.1688554    0.444634542185

 H         

     30   S      88             3.4252509    0.154328967295
     30   S      89             0.6239137    0.535328142282
     30   S      90             0.1688554    0.444634542185

 TOTAL NUMBER OF BASIS SET SHELLS             =   30
 NUMBER OF CARTESIAN GAUSSIAN BASIS FUNCTIONS =   60
 NUMBER OF ELECTRONS                          =   70
 CHARGE OF MOLECULE                           =    0
 SPIN MULTIPLICITY                            =    1
 NUMBER OF OCCUPIED ORBITALS (ALPHA)          =   35
 NUMBER OF OCCUPIED ORBITALS (BETA )          =   35
 TOTAL NUMBER OF ATOMS                        =   20
 THE NUCLEAR REPULSION ENERGY IS      445.9370123699

     LEBEDEV GRID-BASED DFT OPTIONS
     ------------------------------
     DFTTYP=B3LYP   
     NRAD  =      96     NLEB  =     302
     NRAD0 =      24     NLEB0 =     110
     SWOFF =    5.00E-03 (PURE SCF -> DFT)
     SWITCH=    3.00E-04 (COARSE -> TIGHT GRID)
     THRESH=    0.00E+00 GTHRE=    1.00E+00

 GRIMME'S EMPIRICAL DISPERSION CORRECTION= F

     $CONTRL OPTIONS
     ---------------
 SCFTYP=RHF          RUNTYP=OPTIMIZE     EXETYP=RUN     
 MPLEVL=       0     CITYP =NONE         CCTYP =NONE         VBTYP =NONE    
 DFTTYP=B3LYP        TDDFT =NONE    
 MULT  =       1     ICHARG=       0     NZVAR =       0     COORD =PRINAXIS
 PP    =NONE         RELWFN=NONE         LOCAL =NONE         NUMGRD=       F
 ISPHER=      -1     NOSYM =       0     MAXIT =      30     UNITS =ANGS    
 PLTORB=       F     MOLPLT=       F     AIMPAC=       T     FRIEND=        
 NPRINT=       7     IREST =       0     GEOM  =INPUT   
 NORMF =       0     NORMP =       0     ITOL  =      20     ICUT  =       9
 INTTYP=BEST         GRDTYP=BEST         QMTTOL= 1.0E-06

     $SYSTEM OPTIONS
     ---------------
  REPLICATED MEMORY=     1000000 WORDS (ON EVERY NODE).
 DISTRIBUTED MEMDDI=           0 MILLION WORDS IN AGGREGATE,
 MEMDDI DISTRIBUTED OVER   4 PROCESSORS IS           0 WORDS/PROCESSOR.
 TOTAL MEMORY REQUESTED ON EACH PROCESSOR=     1000000 WORDS.
 TIMLIM=      525600.00 MINUTES, OR     365.0 DAYS.
 PARALL= T  BALTYP=  DLB     KDIAG=    0  COREFL= F
 MXSEQ2=     300 MXSEQ3=     150  mem10=         0

          ----------------
          PROPERTIES INPUT
          ----------------

     MOMENTS            FIELD           POTENTIAL          DENSITY
 IEMOM =       1   IEFLD =       0   IEPOT =       0   IEDEN =       0
 WHERE =COMASS     WHERE =NUCLEI     WHERE =NUCLEI     WHERE =NUCLEI  
 OUTPUT=BOTH       OUTPUT=BOTH       OUTPUT=BOTH       OUTPUT=BOTH    
 IEMINT=       0   IEFINT=       0                     IEDINT=       0
                                                       MORB  =       0
          EXTRAPOLATION IN EFFECT
          DIIS IN EFFECT
 ORBITAL PRINTING OPTION: NPREO=     1    60     2     1

     -------------------------------
     INTEGRAL TRANSFORMATION OPTIONS
     -------------------------------
     NWORD  =            0
     CUTOFF = 1.0E-09     MPTRAN =       0
     DIRTRF =       F     AOINTS =DUP     

          ----------------------
          INTEGRAL INPUT OPTIONS
          ----------------------
 NOPK  =       1 NORDER=       0 SCHWRZ=       T

     ------------------------------------------
     THE POINT GROUP IS C1 , NAXIS= 0, ORDER= 1
     ------------------------------------------

     DIMENSIONS OF THE SYMMETRY SUBSPACES ARE
 A   =   60

 ..... DONE SETTING UP THE RUN .....
 CPU     0: STEP CPU TIME=     0.01 TOTAL CPU TIME=        0.0 (    0.0 MIN)
 TOTAL WALL CLOCK TIME=        0.0 SECONDS, CPU UTILIZATION IS  33.33%


          -----------------------------
          STATIONARY POINT LOCATION RUN
          -----------------------------

 OBTAINING INITIAL HESSIAN, HESS=GUESS   
 CARTESIAN COORDINATE OPTIMIZATION USING BADGER'S RULE FORCE CONSTANT GUESS

          PARAMETERS CONTROLLING GEOMETRY SEARCH ARE
          METHOD =QA                  UPHESS =BFGS    
          NNEG   =         0          NFRZ   =         0
          NSTEP  =        40          IFOLOW =         1
          HESS   =GUESS               RESTAR =         F
          IHREP  =         0          HSSEND =         F
          NPRT   =         0          NPUN   =         0
          OPTTOL = 1.000E-04          RMIN   = 1.500E-03
          RMAX   = 1.000E-01          RLIM   = 7.000E-02
          DXMAX  = 3.000E-01          PURIFY =         F
          MOVIE  =         F          TRUPD  =         T
          TRMAX  = 5.000E-01          TRMIN  = 5.000E-02
          ITBMAT =         5          STPT   =         F
          STSTEP = 1.000E-02          PROJCT=          T

 BEGINNING GEOMETRY SEARCH POINT NSERCH=   0 ...

 COORDINATES OF ALL ATOMS ARE (ANGS)
   ATOM   CHARGE       X              Y              Z
 ------------------------------------------------------------
 C           6.0  -1.4141666009   0.2368055361   0.0000000000
 C           6.0   1.4141666009  -0.2368055361   0.0000000000
 C           6.0  -0.4890106139   1.3167508623   0.0000000000
 C           6.0   0.4890106139  -1.3167508623   0.0000000000
 C           6.0   0.8944764246   1.0867984679   0.0000000000
 C           6.0  -0.8944764246  -1.0867984679   0.0000000000
 H           1.0  -0.8686345061   2.3478022117   0.0000000000
 H           1.0   0.8686345061  -2.3478022117   0.0000000000
 H           1.0   1.5869386529   1.9376418845   0.0000000000
 H           1.0  -1.5869386529  -1.9376418845   0.0000000000
 C           6.0   2.8821282368  -0.5345078875   0.0000000000
 C           6.0  -2.8821282368   0.5345078875   0.0000000000
 H           1.0   3.1328930789  -1.6065576856   0.0000000000
 H           1.0  -3.1328930789   1.6065576856   0.0000000000
 C           6.0   3.8817797089   0.3641926304   0.0000000000
 C           6.0  -3.8817797089  -0.3641926304   0.0000000000
 H           1.0   3.7014424111   1.4452289971   0.0000000000
 H           1.0  -3.7014424111  -1.4452289971   0.0000000000
 H           1.0   4.9319228560   0.0481535100   0.0000000000
 H           1.0  -4.9319228560  -0.0481535100   0.0000000000

          ********************
          1 ELECTRON INTEGRALS
          ********************
 ...... END OF ONE-ELECTRON INTEGRALS ......
 CPU     0: STEP CPU TIME=     0.01 TOTAL CPU TIME=        0.0 (    0.0 MIN)
 TOTAL WALL CLOCK TIME=        0.0 SECONDS, CPU UTILIZATION IS  50.00%

          -------------
          GUESS OPTIONS
          -------------
          GUESS =HUCKEL            NORB  =       0          NORDER=       0
          MIX   =       F          PRTMO =       F          PUNMO =       F
          TOLZ  = 1.0E-08          TOLE  = 1.0E-05
          SYMDEN=       F          PURIFY=       F

 INITIAL GUESS ORBITALS GENERATED BY HUCKEL   ROUTINE.
 HUCKEL GUESS REQUIRES     53820 WORDS.

 SYMMETRIES FOR INITIAL GUESS ORBITALS FOLLOW.   BOTH SET(S).
    35 ORBITALS ARE OCCUPIED (   10 CORE ORBITALS).
    11=A       12=A       13=A       14=A       15=A       16=A       17=A   
    18=A       19=A       20=A       21=A       22=A       23=A       24=A   
    25=A       26=A       27=A       28=A       29=A       30=A       31=A   
    32=A       33=A       34=A       35=A       36=A       37=A       38=A   
    39=A       40=A       41=A       42=A       43=A       44=A       45=A   
 ...... END OF INITIAL ORBITAL SELECTION ......
 CPU     0: STEP CPU TIME=     0.01 TOTAL CPU TIME=        0.0 (    0.0 MIN)
 TOTAL WALL CLOCK TIME=        0.1 SECONDS, CPU UTILIZATION IS  50.00%

                    ----------------------
                    AO INTEGRAL TECHNOLOGY
                    ----------------------
     S,P,L SHELL ROTATED AXIS INTEGRALS, REPROGRAMMED BY
        KAZUYA ISHIMURA (IMS) AND JOSE SIERRA (SYNSTAR).
     S,P,D,L SHELL ROTATED AXIS INTEGRALS PROGRAMMED BY
        KAZUYA ISHIMURA (INSTITUTE FOR MOLECULAR SCIENCE).
     S,P,D,F,G SHELL TO TOTAL QUARTET ANGULAR MOMENTUM SUM 5,
        ERIC PROGRAM BY GRAHAM FLETCHER (ELORET AND NASA ADVANCED
        SUPERCOMPUTING DIVISION, AMES RESEARCH CENTER).
     S,P,D,F,G,L SHELL GENERAL RYS QUADRATURE PROGRAMMED BY
        MICHEL DUPUIS (PACIFIC NORTHWEST NATIONAL LABORATORY).

          --------------------
          2 ELECTRON INTEGRALS
          --------------------

 THE -PK- OPTION IS OFF, THE INTEGRALS ARE NOT IN SUPERMATRIX FORM.
 STORING   15000 INTEGRALS/RECORD ON DISK, USING 12 BYTES/INTEGRAL.
 TWO ELECTRON INTEGRAL EVALUATION REQUIRES   89821 WORDS OF MEMORY.
 SCHWARZ INEQUALITY OVERHEAD:      1783 INTEGRALS, T=        0.01
 II,JST,KST,LST =  1  1  1  1 NREC =         1 INTLOC =    1
 II,JST,KST,LST =  2  1  1  1 NREC =         1 INTLOC =    1
 II,JST,KST,LST =  3  1  1  1 NREC =         1 INTLOC =    1
 II,JST,KST,LST =  4  1  1  1 NREC =         1 INTLOC =   59
 II,JST,KST,LST =  5  1  1  1 NREC =         1 INTLOC =  585
 II,JST,KST,LST =  6  1  1  1 NREC =         1 INTLOC =  659
 II,JST,KST,LST =  7  1  1  1 NREC =         1 INTLOC = 2933
 II,JST,KST,LST =  8  1  1  1 NREC =         1 INTLOC = 3492
 II,JST,KST,LST =  9  1  1  1 NREC =         1 INTLOC = 9214
 II,JST,KST,LST = 10  1  1  1 NREC =         1 INTLOC =10396
 II,JST,KST,LST = 11  1  1  1 NREC =         2 INTLOC = 3361
 II,JST,KST,LST = 12  1  1  1 NREC =         2 INTLOC = 3361
 II,JST,KST,LST = 13  1  1  1 NREC =         2 INTLOC =10311
 II,JST,KST,LST = 14  1  1  1 NREC =         2 INTLOC =13152
 II,JST,KST,LST = 15  1  1  1 NREC =         2 INTLOC =14460
 II,JST,KST,LST = 16  1  1  1 NREC =         3 INTLOC = 1627
 II,JST,KST,LST = 17  1  1  1 NREC =         3 INTLOC = 5954
 II,JST,KST,LST = 18  1  1  1 NREC =         3 INTLOC = 9040
 II,JST,KST,LST = 19  1  1  1 NREC =         4 INTLOC = 6672
 II,JST,KST,LST = 20  1  1  1 NREC =         4 INTLOC =10040
 II,JST,KST,LST = 21  1  1  1 NREC =         6 INTLOC = 2512
 II,JST,KST,LST = 22  1  1  1 NREC =         6 INTLOC = 4094
 II,JST,KST,LST = 23  1  1  1 NREC =         6 INTLOC =14171
 II,JST,KST,LST = 24  1  1  1 NREC =         7 INTLOC =  814
 II,JST,KST,LST = 25  1  1  1 NREC =         8 INTLOC =14132
 II,JST,KST,LST = 26  1  1  1 NREC =         9 INTLOC = 6220
 II,JST,KST,LST = 27  1  1  1 NREC =        11 INTLOC =   54
 II,JST,KST,LST = 28  1  1  1 NREC =        11 INTLOC =13655
 II,JST,KST,LST = 29  1  1  1 NREC =        12 INTLOC = 5710
 II,JST,KST,LST = 30  1  1  1 NREC =        13 INTLOC = 1504
 SCHWARZ INEQUALITY TEST SKIPPED       45896 INTEGRAL BLOCKS.
 TOTAL NUMBER OF NONZERO TWO-ELECTRON INTEGRALS =              673621
         46 INTEGRAL RECORDS WERE STORED ON DISK FILE  8.
  ...... END OF TWO-ELECTRON INTEGRALS .....
 CPU     0: STEP CPU TIME=     0.14 TOTAL CPU TIME=        0.2 (    0.0 MIN)
 TOTAL WALL CLOCK TIME=        0.2 SECONDS, CPU UTILIZATION IS  77.27%

          --------------------------
             R-B3LYP SCF CALCULATION
          --------------------------

     NUCLEAR ENERGY =       445.9370123699
     MAXIT =   30     NPUNCH=    2
     EXTRAP=T  DAMP=F  SHIFT=F  RSTRCT=F  DIIS=T  DEM=F  SOSCF=F
         DENSITY MATRIX CONVERGENCE THRESHOLD=  1.00E-05
     COARSE -> FINE DFT GRID SWITCH THRESHOLD=  3.00E-04 (SWITCH IN $DFT)
                   HF -> DFT SWITCH THRESHOLD=  5.00E-03 (SWOFF IN $DFT)
     MEMORY REQUIRED FOR RHF ITERS=    708602 WORDS.

 DFT CODE IS SWITCHING FROM THE FINE GRID NRAD= 96,  NLEB=  302
                      TO THE COARSE GRID NRAD0= 24, NLEB0=  110

     EXCHANGE FUNCTIONAL   =B88&HFX   
     CORRELATION FUNCTIONAL=LYP88&VWN5
     DFT THRESHOLD         =.690E-08
     GRID CHANGE THRESHOLD =.300E-03
 FOR AN EULER-MACLAURIN QUADRATURE USING  96 RADIAL POINTS:
 SMALLEST GAUSSIAN PRIMITIVE EXPONENT=        0.1688554040 OF TYPE -S-
 ON ATOM NUMBER   7 HAS RADIAL NORMALIZATION=  1.000000
  LARGEST GAUSSIAN PRIMITIVE EXPONENT=       71.6168373490 OF TYPE -S-
 ON ATOM NUMBER   1 HAS RADIAL NORMALIZATION=  1.000000
 DFT IS SWITCHED OFF, PERFORMING PURE SCF UNTIL SWOFF THRESHOLD IS REACHED.

 ITER EX DEM     TOTAL ENERGY        E CHANGE  DENSITY CHANGE    DIIS ERROR
   1  0  0     -379.4387732902  -379.4387732902   0.191911914   0.665502984
          * * *   INITIATING DIIS PROCEDURE   * * *
   2  1  0     -379.7614509473    -0.3226776571   0.050332245   0.036502078
   3  2  0     -379.7682857225    -0.0068347752   0.016935169   0.010715895
   4  3  0     -379.7688447640    -0.0005590415   0.006148565   0.005596005
   5  4  0     -379.7689588965    -0.0001141325   0.001361835   0.001078739
 CONVERGED TO SWOFF, SO DFT CALCULATION IS NOW SWITCHED ON.
          * * *   INITIATING DIIS PROCEDURE   * * *
   6  5  0     -382.0439700934    -2.2750111969   0.045542478   0.095737905
   7  6  0     -382.0515864841    -0.0076163907   0.014677874   0.006138793
   8  7  0     -382.0518251746    -0.0002386904   0.006628244   0.003080943
   9  8  0     -382.0519124267    -0.0000872521   0.003369439   0.001952638
  10  9  0     -382.0519243699    -0.0000119432   0.000448632   0.000326074
  11 10  0     -382.0519245425    -0.0000001726   0.000181384   0.000111816
 DFT CODE IS SWITCHING BACK TO THE FINE GRID
          * * *   INITIATING DIIS PROCEDURE   * * *
  12 11  0     -382.0506345819     0.0012899607   0.000365800   0.000421476
  13 12  0     -382.0506352649    -0.0000006831   0.000203956   0.000077412
  14 13  0     -382.0506352982    -0.0000000333   0.000195148   0.000092091
  15 14  0     -382.0506353265    -0.0000000283   0.000078511   0.000043065
  16 15  0     -382.0506353334    -0.0000000069   0.000008422   0.000006443
  17 16  0     -382.0506353336    -0.0000000002   0.000000698   0.000000476

          -----------------
          DENSITY CONVERGED
          -----------------
     TIME TO FORM FOCK OPERATORS=      14.6 SECONDS (       0.9 SEC/ITER)
     TIME TO SOLVE SCF EQUATIONS=       0.1 SECONDS (       0.0 SEC/ITER)

 FINAL R-B3LYP ENERGY IS     -382.0506353336 AFTER  17 ITERATIONS
 DFT EXCHANGE + CORRELATION ENERGY =       -46.5262598055
 TOTAL ELECTRON NUMBER             =        69.9994041551

          ------------
          EIGENVECTORS
          ------------

                      1          2          3          4          5
                  -10.0162   -10.0162   -10.0039   -10.0039   -10.0029
                     A          A          A          A          A   
    1  C  1  S    0.705593   0.692940  -0.024653   0.030303   0.003961
    2  C  1  S    0.031850   0.031073   0.003681  -0.004439  -0.001009
    3  C  1  X    0.000914   0.000624  -0.003737   0.004520   0.000462
    4  C  1  Y   -0.000019   0.000033   0.000602  -0.000716   0.005287
    5  C  1  Z   -0.000000  -0.000000   0.000000  -0.000000  -0.000000
    6  C  2  S   -0.692943   0.705589   0.030097   0.024909   0.002365
    7  C  2  S   -0.031283   0.031644  -0.004477  -0.003634  -0.000556
    8  C  2  X    0.000902  -0.000640  -0.004548  -0.003703  -0.000633
    9  C  2  Y   -0.000020  -0.000032   0.000730   0.000585  -0.005221
   10  C  2  Z   -0.000000  -0.000000   0.000000  -0.000000  -0.000000
   11  C  3  S   -0.019090  -0.019215   0.010230  -0.015788  -0.427472
   12  C  3  S   -0.007808  -0.006860   0.000608  -0.000747  -0.023773
   13  C  3  X    0.002655   0.002973   0.000025   0.000060  -0.003556
   14  C  3  Y    0.003564   0.003290  -0.000113   0.000201   0.000989
   15  C  3  Z   -0.000000  -0.000000   0.000000  -0.000000  -0.000000
   16  C  4  S    0.018741  -0.019559  -0.013117  -0.013488  -0.451259
   17  C  4  S    0.007683  -0.007000  -0.000742  -0.000614  -0.025117
   18  C  4  X    0.002601  -0.003020   0.000013  -0.000064   0.003769
   19  C  4  Y    0.003504  -0.003354  -0.000150  -0.000175  -0.001053
   20  C  4  Z   -0.000000  -0.000000   0.000000  -0.000000  -0.000000
   21  C  5  S    0.019049  -0.019730  -0.010622  -0.010011   0.529244
   22  C  5  S    0.007647  -0.006942  -0.000586  -0.000365   0.027301
   23  C  5  X    0.001308  -0.001765   0.000095  -0.000015  -0.003145
   24  C  5  Y   -0.004132   0.004107   0.000149   0.000197   0.000076
   25  C  5  Z   -0.000000  -0.000000   0.000000  -0.000000  -0.000000
   26  C  6  S   -0.019402  -0.019381   0.008464  -0.011893   0.559905
   27  C  6  S   -0.007771  -0.006802   0.000504  -0.000473   0.028886
   28  C  6  X    0.001339   0.001741   0.000096  -0.000004   0.003332
   29  C  6  Y   -0.004205  -0.004031   0.000108  -0.000223  -0.000072
   30  C  6  Z   -0.000000  -0.000000   0.000000  -0.000000  -0.000000
   31  H  7  S    0.000338   0.000220  -0.000091   0.000118   0.003952
   32  H  8  S   -0.000334   0.000226   0.000112   0.000098   0.004175
   33  H  9  S   -0.000332   0.000226  -0.000050  -0.000053  -0.004900
   34  H 10  S    0.000336   0.000220   0.000039  -0.000062  -0.005184
   35  C 11  S    0.026803  -0.027660   0.765041   0.627669  -0.001184
   36  C 11  S    0.006648  -0.006839   0.033656   0.027599  -0.000062
   37  C 11  X   -0.003937   0.004048   0.001188   0.000984   0.000032
   38  C 11  Y    0.000897  -0.000922   0.000821   0.000672   0.000107
   39  C 11  Z   -0.000000  -0.000000   0.000000  -0.000000  -0.000000
   40  C 12  S   -0.027296  -0.027169  -0.627762   0.764965  -0.000421
   41  C 12  S   -0.006771  -0.006718  -0.027619   0.033639  -0.000022
   42  C 12  X   -0.004010  -0.003976   0.000973  -0.001197  -0.000035
   43  C 12  Y    0.000914   0.000905   0.000674  -0.000819  -0.000110
   44  C 12  Z   -0.000000  -0.000000   0.000000  -0.000000  -0.000000
   45  H 13  S   -0.000320   0.000337  -0.007017  -0.005756   0.000001
   46  H 14  S    0.000326   0.000331   0.005759  -0.007015  -0.000009
   47  C 15  S   -0.000177   0.000194  -0.008878  -0.007279  -0.000261
   48  C 15  S   -0.000467   0.000478  -0.008329  -0.006833  -0.000042
   49  C 15  X    0.000279  -0.000291   0.003763   0.003086   0.000005
   50  C 15  Y   -0.000007   0.000006   0.003330   0.002733  -0.000035
   51  C 15  Z   -0.000000  -0.000000   0.000000  -0.000000  -0.000000
   52  C 16  S    0.000181   0.000191   0.007286  -0.008872  -0.000313
   53  C 16  S    0.000475   0.000470   0.006835  -0.008328  -0.000058
   54  C 16  X    0.000284   0.000286   0.003088  -0.003762  -0.000013
   55  C 16  Y   -0.000007  -0.000006   0.002733  -0.003330   0.000034
   56  C 16  Z   -0.000000  -0.000000   0.000000  -0.000000  -0.000000
   57  H 17  S    0.000148  -0.000142   0.000204   0.000168   0.000151
   58  H 18  S   -0.000150  -0.000140  -0.000167   0.000205   0.000160
   59  H 19  S    0.000028  -0.000028   0.000237   0.000195  -0.000004
   60  H 20  S   -0.000029  -0.000027  -0.000195   0.000237  -0.000005

                      6          7          8          9         10
                  -10.0029   -10.0022   -10.0021    -9.9882    -9.9882
                     A          A          A          A          A   
    1  C  1  S   -0.028653  -0.003541   0.029518  -0.000079   0.000236
    2  C  1  S    0.008133   0.001061  -0.007497  -0.000073   0.000212
    3  C  1  X    0.003098   0.001263  -0.003078   0.000023  -0.000065
    4  C  1  Y   -0.001063   0.005009  -0.000040   0.000010  -0.000032
    5  C  1  Z   -0.000000   0.000000   0.000000  -0.000000  -0.000000
    6  C  2  S    0.028835   0.003575   0.029512   0.000236   0.000081
    7  C  2  S   -0.008178  -0.001070  -0.007495   0.000212   0.000071
    8  C  2  X    0.003068   0.001266   0.003076   0.000065   0.000021
    9  C  2  Y   -0.001354   0.005008   0.000034   0.000031   0.000012
   10  C  2  Z   -0.000000   0.000000   0.000000  -0.000000  -0.000000
   11  C  3  S   -0.438796  -0.554687   0.545232   0.000002   0.000631
   12  C  3  S   -0.024830  -0.020478   0.019829  -0.000025  -0.000056
   13  C  3  X   -0.003942   0.002238  -0.002349  -0.000060   0.000060
   14  C  3  Y    0.001176   0.000232   0.000135   0.000002   0.000018
   15  C  3  Z   -0.000000   0.000000   0.000000  -0.000000  -0.000000
   16  C  4  S    0.414483   0.555206   0.544558   0.000499   0.000387
   17  C  4  S    0.023476   0.020495   0.019803  -0.000029  -0.000054
   18  C  4  X   -0.003739   0.002241   0.002347  -0.000084   0.000011
   19  C  4  Y    0.001119   0.000231  -0.000135  -0.000013  -0.000012
   20  C  4  Z   -0.000000   0.000000   0.000000  -0.000000  -0.000000
   21  C  5  S    0.568904  -0.427819   0.439964   0.001080   0.000413
   22  C  5  S    0.029365  -0.013659   0.014233  -0.000030  -0.000026
   23  C  5  X   -0.003442  -0.002994   0.003011  -0.000134  -0.000033
   24  C  5  Y   -0.000087   0.000948  -0.000671   0.000007  -0.000000
   25  C  5  Z   -0.000000   0.000000   0.000000  -0.000000  -0.000000
   26  C  6  S   -0.538610   0.428405   0.439570  -0.000331   0.001107
   27  C  6  S   -0.027804   0.013680   0.014222  -0.000002  -0.000040
   28  C  6  X   -0.003262  -0.002997  -0.003007  -0.000055   0.000127
   29  C  6  Y   -0.000091   0.000949   0.000670   0.000005  -0.000006
   30  C  6  Z   -0.000000   0.000000   0.000000  -0.000000  -0.000000
   31  H  7  S    0.004110   0.004889  -0.004971   0.000003  -0.000020
   32  H  8  S   -0.003885  -0.004894  -0.004965  -0.000018  -0.000010
   33  H  9  S   -0.005276   0.003726  -0.004019   0.000138   0.000047
   34  H 10  S    0.004996  -0.003732  -0.004016  -0.000047   0.000139
   35  C 11  S    0.013693   0.003330   0.017296   0.012070   0.004108
   36  C 11  S    0.000728   0.000173   0.000751  -0.009230  -0.003139
   37  C 11  X    0.000054   0.000025   0.000187  -0.004522  -0.001538
   38  C 11  Y    0.000058  -0.000008   0.000025  -0.004129  -0.001404
   39  C 11  Z   -0.000000   0.000000   0.000000  -0.000000  -0.000000
   40  C 12  S   -0.013735  -0.003310   0.017301  -0.004103   0.012072
   41  C 12  S   -0.000730  -0.000172   0.000752   0.003139  -0.009229
   42  C 12  X    0.000052   0.000024  -0.000187  -0.001538   0.004522
   43  C 12  Y    0.000052  -0.000008  -0.000025  -0.001404   0.004129
   44  C 12  Z   -0.000000   0.000000   0.000000  -0.000000  -0.000000
   45  H 13  S   -0.000181  -0.000053  -0.000251   0.000058   0.000020
   46  H 14  S    0.000180   0.000053  -0.000252  -0.000020   0.000058
   47  C 15  S   -0.000942   0.000215  -0.001150   0.937867   0.318970
   48  C 15  S   -0.000279  -0.000027  -0.000326   0.041326   0.014055
   49  C 15  X    0.000142   0.000010   0.000184  -0.001253  -0.000426
   50  C 15  Y    0.000026   0.000052   0.000053  -0.001190  -0.000405
   51  C 15  Z   -0.000000   0.000000   0.000000  -0.000000  -0.000000
   52  C 16  S    0.000926  -0.000216  -0.001150  -0.318970   0.937867
   53  C 16  S    0.000277   0.000026  -0.000326  -0.014055   0.041326
   54  C 16  X    0.000141   0.000010  -0.000184  -0.000426   0.001252
   55  C 16  Y    0.000028   0.000052  -0.000053  -0.000405   0.001190
   56  C 16  Z   -0.000000   0.000000   0.000000  -0.000000  -0.000000
   57  H 17  S    0.000159  -0.000092   0.000098  -0.008516  -0.002896
   58  H 18  S   -0.000150   0.000092   0.000098   0.002896  -0.008516
   59  H 19  S   -0.000008   0.000010  -0.000011  -0.008528  -0.002901
   60  H 20  S    0.000008  -0.000010  -0.000011   0.002900  -0.008528

                     11         12         13         14         15
                   -0.8058    -0.7503    -0.7142    -0.6963    -0.6637
                     A          A          A          A          A   
    1  C  1  S   -0.107861   0.103546  -0.004511  -0.012612   0.099653
    2  C  1  S    0.274702  -0.273769   0.014785   0.034105  -0.274064
    3  C  1  X    0.040705   0.032982  -0.096150   0.023002  -0.056212
    4  C  1  Y   -0.005489  -0.004475   0.010370   0.124975   0.017821
    5  C  1  Z   -0.000000   0.000000  -0.000000  -0.000000  -0.000000
    6  C  2  S   -0.107861  -0.103546  -0.004511   0.012612  -0.099653
    7  C  2  S    0.274703   0.273769   0.014785  -0.034106   0.274065
    8  C  2  X   -0.040705   0.032982   0.096151   0.023002  -0.056213
    9  C  2  Y    0.005489  -0.004476  -0.010370   0.124975   0.017821
   10  C  2  Z   -0.000000   0.000000  -0.000000  -0.000000  -0.000000
   11  C  3  S   -0.097843   0.039071   0.046321  -0.132327   0.040746
   12  C  3  S    0.247011  -0.102243  -0.121486   0.357132  -0.112619
   13  C  3  X    0.014483   0.058952  -0.037039   0.056190   0.091430
   14  C  3  Y   -0.053361   0.027380   0.016145   0.003493   0.037884
   15  C  3  Z   -0.000000   0.000000  -0.000000  -0.000000  -0.000000
   16  C  4  S   -0.097844  -0.039070   0.046322   0.132327  -0.040746
   17  C  4  S    0.247011   0.102242  -0.121487  -0.357131   0.112618
   18  C  4  X   -0.014483   0.058952   0.037039   0.056189   0.091430
   19  C  4  Y    0.053360   0.027380  -0.016145   0.003492   0.037884
   20  C  4  Z   -0.000000   0.000000  -0.000000  -0.000000  -0.000000
   21  C  5  S   -0.097567  -0.042776   0.041739  -0.120084  -0.073319
   22  C  5  S    0.246665   0.112515  -0.108974   0.323869   0.202339
   23  C  5  X   -0.031424   0.046675   0.047348  -0.065626   0.046950
   24  C  5  Y   -0.045746  -0.044618   0.002042   0.034654  -0.054055
   25  C  5  Z   -0.000000   0.000000  -0.000000  -0.000000  -0.000000
   26  C  6  S   -0.097567   0.042776   0.041739   0.120084   0.073320
   27  C  6  S    0.246666  -0.112515  -0.108975  -0.323868  -0.202339
   28  C  6  X    0.031424   0.046675  -0.047349  -0.065626   0.046950
   29  C  6  Y    0.045746  -0.044618  -0.002042   0.034654  -0.054055
   30  C  6  Z   -0.000000   0.000000  -0.000000  -0.000000  -0.000000
   31  H  7  S    0.044964  -0.026881  -0.023357   0.098345  -0.032175
   32  H  8  S    0.044964   0.026881  -0.023357  -0.098345   0.032175
   33  H  9  S    0.045206   0.030765  -0.016605   0.090005   0.053486
   34  H 10  S    0.045206  -0.030765  -0.016605  -0.090005  -0.053486
   35  C 11  S   -0.049735  -0.113821  -0.119231   0.000186   0.051605
   36  C 11  S    0.127849   0.297172   0.314787  -0.001239  -0.136809
   37  C 11  X   -0.028454  -0.008512   0.057481   0.018505  -0.129049
   38  C 11  Y    0.012900   0.034179   0.045349   0.022972  -0.039187
   39  C 11  Z   -0.000000   0.000000  -0.000000  -0.000000  -0.000000
   40  C 12  S   -0.049735   0.113821  -0.119231  -0.000186  -0.051605
   41  C 12  S    0.127849  -0.297172   0.314787   0.001239   0.136810
   42  C 12  X    0.028454  -0.008512  -0.057481   0.018506  -0.129049
   43  C 12  Y   -0.012900   0.034179  -0.045348   0.022972  -0.039187
   44  C 12  Z   -0.000000   0.000000  -0.000000  -0.000000  -0.000000
   45  H 13  S    0.025622   0.067041   0.076548  -0.009843  -0.037636
   46  H 14  S    0.025622  -0.067041   0.076548   0.009843   0.037636
   47  C 15  S   -0.024681  -0.080731  -0.117463  -0.014524   0.110269
   48  C 15  S    0.062713   0.209312   0.309752   0.037983  -0.299487
   49  C 15  X   -0.020361  -0.049904  -0.052789  -0.006376   0.016365
   50  C 15  Y   -0.012403  -0.037284  -0.049072   0.001565   0.034517
   51  C 15  Z   -0.000000   0.000000  -0.000000  -0.000000  -0.000000
   52  C 16  S   -0.024681   0.080731  -0.117463   0.014525  -0.110269
   53  C 16  S    0.062712  -0.209312   0.309752  -0.037984   0.299487
   54  C 16  X    0.020361  -0.049904   0.052789  -0.006376   0.016365
   55  C 16  Y    0.012403  -0.037284   0.049072   0.001565   0.034517
   56  C 16  Z   -0.000000   0.000000  -0.000000  -0.000000  -0.000000
   57  H 17  S    0.014138   0.048601   0.074225   0.014812  -0.077420
   58  H 18  S    0.014138  -0.048601   0.074224  -0.014812   0.077420
   59  H 19  S    0.010592   0.043701   0.074861   0.008957  -0.089986
   60  H 20  S    0.010592  -0.043701   0.074860  -0.008957   0.089986

                     16         17         18         19         20
                   -0.5849    -0.5555    -0.5278    -0.5063    -0.4540
                     A          A          A          A          A   
    1  C  1  S    0.070954   0.054343  -0.013040  -0.054543  -0.032282
    2  C  1  S   -0.206311  -0.160849   0.037105   0.162191   0.106312
    3  C  1  X    0.072119   0.063938   0.134917   0.142540  -0.132275
    4  C  1  Y   -0.121088   0.184818  -0.053589   0.019506   0.051440
    5  C  1  Z    0.000000  -0.000000  -0.000000  -0.000000   0.000000
    6  C  2  S    0.070954   0.054343   0.013040  -0.054543  -0.032282
    7  C  2  S   -0.206310  -0.160850  -0.037106   0.162191   0.106311
    8  C  2  X   -0.072119  -0.063938   0.134918  -0.142539   0.132275
    9  C  2  Y    0.121089  -0.184817  -0.053589  -0.019506  -0.051441
   10  C  2  Z    0.000000  -0.000000  -0.000000  -0.000000   0.000000
   11  C  3  S    0.003042  -0.110447  -0.050674   0.006947  -0.013355
   12  C  3  S   -0.010091   0.326005   0.154479  -0.025489   0.051555
   13  C  3  X    0.159995  -0.036492  -0.004817  -0.087906  -0.141369
   14  C  3  Y    0.029900   0.081704  -0.005251  -0.184475   0.136886
   15  C  3  Z    0.000000  -0.000000  -0.000000  -0.000000   0.000000
   16  C  4  S    0.003042  -0.110447   0.050674   0.006947  -0.013355
   17  C  4  S   -0.010091   0.326006  -0.154479  -0.025490   0.051555
   18  C  4  X   -0.159995   0.036491  -0.004818   0.087905   0.141370
   19  C  4  Y   -0.029900  -0.081704  -0.005252   0.184476  -0.136887
   20  C  4  Z    0.000000  -0.000000  -0.000000  -0.000000   0.000000
   21  C  5  S   -0.081917   0.057451   0.030359   0.052242   0.019794
   22  C  5  S    0.233823  -0.170677  -0.092030  -0.166033  -0.056246
   23  C  5  X   -0.022857  -0.170422  -0.078578  -0.037327   0.135964
   24  C  5  Y    0.065455   0.086553   0.035829  -0.201874   0.084612
   25  C  5  Z    0.000000  -0.000000  -0.000000  -0.000000   0.000000
   26  C  6  S   -0.081917   0.057451  -0.030359   0.052242   0.019794
   27  C  6  S    0.233823  -0.170678   0.092030  -0.166032  -0.056246
   28  C  6  X    0.022857   0.170422  -0.078578   0.037326  -0.135965
   29  C  6  Y   -0.065455  -0.086553   0.035828   0.201875  -0.084612
   30  C  6  Z    0.000000  -0.000000  -0.000000  -0.000000   0.000000
   31  H  7  S   -0.019326   0.169285   0.050334  -0.099463   0.136022
   32  H  8  S   -0.019325   0.169285  -0.050334  -0.099464   0.136022
   33  H  9  S    0.106455  -0.083805  -0.055818  -0.169324   0.090415
   34  H 10  S    0.106455  -0.083805   0.055818  -0.169324   0.090415
   35  C 11  S    0.053064   0.007590  -0.098852   0.059119   0.040167
   36  C 11  S   -0.159628  -0.024547   0.302749  -0.180739  -0.127644
   37  C 11  X    0.129229   0.077941  -0.041050  -0.001508  -0.184651
   38  C 11  Y    0.081299  -0.046610  -0.116048   0.064543   0.114824
   39  C 11  Z    0.000000  -0.000000  -0.000000  -0.000000   0.000000
   40  C 12  S    0.053064   0.007590   0.098852   0.059120   0.040167
   41  C 12  S   -0.159628  -0.024547  -0.302748  -0.180741  -0.127644
   42  C 12  X   -0.129229  -0.077941  -0.041050   0.001508   0.184651
   43  C 12  Y   -0.081299   0.046610  -0.116047  -0.064544  -0.114824
   44  C 12  Z    0.000000  -0.000000  -0.000000  -0.000000   0.000000
   45  H 13  S   -0.080070   0.032175   0.170554  -0.112532  -0.153112
   46  H 14  S   -0.080070   0.032175  -0.170554  -0.112533  -0.153112
   47  C 15  S   -0.083700  -0.037875   0.080730  -0.051545  -0.016872
   48  C 15  S    0.241372   0.113496  -0.249113   0.163436   0.063318
   49  C 15  X    0.038263   0.049450  -0.091251   0.081647  -0.009206
   50  C 15  Y    0.035617  -0.013897  -0.123157   0.079146   0.212733
   51  C 15  Z    0.000000  -0.000000  -0.000000  -0.000000   0.000000
   52  C 16  S   -0.083701  -0.037875  -0.080730  -0.051545  -0.016872
   53  C 16  S    0.241372   0.113496   0.249112   0.163437   0.063318
   54  C 16  X   -0.038263  -0.049450  -0.091251  -0.081648   0.009206
   55  C 16  Y   -0.035617   0.013897  -0.123157  -0.079147  -0.212732
   56  C 16  Z    0.000000  -0.000000  -0.000000  -0.000000   0.000000
   57  H 17  S    0.103573   0.022791  -0.160662   0.094752   0.179152
   58  H 18  S    0.103574   0.022791   0.160661   0.094753   0.179152
   59  H 19  S    0.097759   0.067911  -0.124740   0.097207  -0.021489
   60  H 20  S    0.097759   0.067911   0.124739   0.097208  -0.021490

                     21         22         23         24         25
                   -0.4356    -0.4074    -0.3941    -0.3923    -0.3708
                     A          A          A          A          A   
    1  C  1  S    0.022758   0.069473  -0.022733   0.021682   0.002560
    2  C  1  S   -0.078049  -0.235360   0.077376  -0.071617  -0.008780
    3  C  1  X    0.135079  -0.027513   0.143256   0.010232  -0.078813
    4  C  1  Y    0.124746  -0.100923  -0.220900  -0.015735  -0.084965
    5  C  1  Z   -0.000000   0.000000   0.000000  -0.000000  -0.000000
    6  C  2  S   -0.022758  -0.069473   0.022733   0.021682  -0.002560
    7  C  2  S    0.078049   0.235361  -0.077377  -0.071616   0.008780
    8  C  2  X    0.135079  -0.027514   0.143256  -0.010233  -0.078813
    9  C  2  Y    0.124746  -0.100924  -0.220899   0.015735  -0.084965
   10  C  2  Z   -0.000000   0.000000   0.000000  -0.000000  -0.000000
   11  C  3  S   -0.022156  -0.047371  -0.001295  -0.025151   0.028511
   12  C  3  S    0.074587   0.162917   0.001633   0.083992  -0.090742
   13  C  3  X   -0.184893   0.061496   0.120730   0.082129  -0.145399
   14  C  3  Y    0.018618   0.222280  -0.002998  -0.006369   0.307535
   15  C  3  Z   -0.000000   0.000000   0.000000  -0.000000  -0.000000
   16  C  4  S    0.022156   0.047371   0.001295  -0.025151  -0.028511
   17  C  4  S   -0.074587  -0.162919  -0.001633   0.083991   0.090742
   18  C  4  X   -0.184894   0.061497   0.120730  -0.082129  -0.145399
   19  C  4  Y    0.018618   0.222279  -0.002999   0.006370   0.307534
   20  C  4  Z   -0.000000   0.000000   0.000000  -0.000000  -0.000000
   21  C  5  S    0.042599   0.044041   0.011774   0.018240   0.019705
   22  C  5  S   -0.139005  -0.152859  -0.036775  -0.068003  -0.062209
   23  C  5  X    0.101413  -0.177890  -0.056902  -0.136748   0.226084
   24  C  5  Y   -0.096645  -0.112951   0.251123  -0.037115   0.188077
   25  C  5  Z   -0.000000   0.000000   0.000000  -0.000000  -0.000000
   26  C  6  S   -0.042599  -0.044042  -0.011774   0.018240  -0.019705
   27  C  6  S    0.139005   0.152860   0.036774  -0.068003   0.062209
   28  C  6  X    0.101413  -0.177890  -0.056901   0.136747   0.226084
   29  C  6  Y   -0.096646  -0.112951   0.251124   0.037113   0.188076
   30  C  6  Z   -0.000000   0.000000   0.000000  -0.000000  -0.000000
   31  H  7  S    0.100247   0.226736  -0.036575   0.006050   0.252265
   32  H  8  S   -0.100247  -0.226736   0.036575   0.006048  -0.252265
   33  H  9  S   -0.059897  -0.230552   0.132592  -0.114117   0.218249
   34  H 10  S    0.059897   0.230553  -0.132592  -0.114114  -0.218248
   35  C 11  S   -0.016909   0.015291  -0.002556  -0.027662  -0.001940
   36  C 11  S    0.051651  -0.042284   0.014880   0.080634   0.004629
   37  C 11  X   -0.101053  -0.125140  -0.181567   0.081767   0.066881
   38  C 11  Y    0.219232  -0.038076  -0.043014   0.251451  -0.018609
   39  C 11  Z   -0.000000   0.000000   0.000000  -0.000000  -0.000000
   40  C 12  S    0.016909  -0.015290   0.002556  -0.027662   0.001940
   41  C 12  S   -0.051651   0.042283  -0.014879   0.080634  -0.004629
   42  C 12  X   -0.101053  -0.125140  -0.181568  -0.081768   0.066880
   43  C 12  Y    0.219231  -0.038074  -0.043015  -0.251451  -0.018609
   44  C 12  Z   -0.000000   0.000000   0.000000  -0.000000  -0.000000
   45  H 13  S   -0.155527  -0.028059   0.012390  -0.145045   0.016753
   46  H 14  S    0.155527   0.028060  -0.012390  -0.145045  -0.016753
   47  C 15  S    0.008139  -0.012231   0.001060  -0.004447   0.004456
   48  C 15  S   -0.031350   0.050751   0.007509  -0.000068  -0.018510
   49  C 15  X   -0.210320   0.133621  -0.037952  -0.338969   0.005495
   50  C 15  Y    0.090597   0.075419   0.250557  -0.011344  -0.076527
   51  C 15  Z   -0.000000   0.000000   0.000000  -0.000000  -0.000000
   52  C 16  S   -0.008139   0.012231  -0.001060  -0.004447  -0.004456
   53  C 16  S    0.031350  -0.050751  -0.007509  -0.000069   0.018510
   54  C 16  X   -0.210319   0.133619  -0.037951   0.338971   0.005496
   55  C 16  Y    0.090597   0.075420   0.250557   0.011344  -0.076527
   56  C 16  Z   -0.000000   0.000000   0.000000  -0.000000  -0.000000
   57  H 17  S    0.073090   0.042129   0.215484   0.024941  -0.053941
   58  H 18  S   -0.073089  -0.042129  -0.215484   0.024941   0.053941
   59  H 19  S   -0.178194   0.105150  -0.087072  -0.262623   0.015168
   60  H 20  S    0.178194  -0.105148   0.087072  -0.262625  -0.015169

                     26         27         28         29         30
                   -0.3473    -0.3434    -0.3209    -0.3074    -0.2893
                     A          A          A          A          A   
    1  C  1  S    0.003153  -0.025061  -0.000000  -0.010278  -0.003417
    2  C  1  S   -0.011694   0.090256  -0.000000   0.044838   0.022803
    3  C  1  X    0.178206   0.000742  -0.000000  -0.241986  -0.268447
    4  C  1  Y    0.167157  -0.088937  -0.000000   0.092170  -0.130772
    5  C  1  Z   -0.000000  -0.000000   0.337607  -0.000000  -0.000000
    6  C  2  S   -0.003152  -0.025061  -0.000000   0.010278  -0.003417
    7  C  2  S    0.011692   0.090256  -0.000000  -0.044838   0.022804
    8  C  2  X    0.178207  -0.000737  -0.000000  -0.241988   0.268445
    9  C  2  Y    0.167155   0.088941  -0.000000   0.092169   0.130773
   10  C  2  Z   -0.000000  -0.000000   0.337606  -0.000000  -0.000000
   11  C  3  S   -0.017590  -0.005290  -0.000000   0.006851   0.002709
   12  C  3  S    0.063587   0.026930  -0.000000  -0.021178  -0.008832
   13  C  3  X   -0.224391  -0.133574  -0.000000  -0.041023   0.278244
   14  C  3  Y   -0.100664   0.128383  -0.000000   0.064896   0.132549
   15  C  3  Z   -0.000000  -0.000000   0.297977  -0.000000  -0.000000
   16  C  4  S    0.017590  -0.005289  -0.000000  -0.006851   0.002709
   17  C  4  S   -0.063587   0.026928  -0.000000   0.021177  -0.008832
   18  C  4  X   -0.224395   0.133568  -0.000000  -0.041020  -0.278243
   19  C  4  Y   -0.100660  -0.128386  -0.000000   0.064897  -0.132548
   20  C  4  Z   -0.000000  -0.000000   0.297977  -0.000000  -0.000000
   21  C  5  S    0.007124   0.007541  -0.000000  -0.013747  -0.008885
   22  C  5  S   -0.020442  -0.025368  -0.000000   0.047249   0.024689
   23  C  5  X    0.193290   0.139766  -0.000000   0.007885  -0.234505
   24  C  5  Y   -0.070698  -0.063853  -0.000000  -0.144522  -0.080353
   25  C  5  Z   -0.000000  -0.000000   0.297158  -0.000000  -0.000000
   26  C  6  S   -0.007124   0.007540  -0.000000   0.013747  -0.008886
   27  C  6  S    0.020442  -0.025368  -0.000000  -0.047248   0.024690
   28  C  6  X    0.193293  -0.139761  -0.000000   0.007883   0.234505
   29  C  6  Y   -0.070700   0.063852  -0.000000  -0.144522   0.080352
   30  C  6  Z   -0.000000  -0.000000   0.297159  -0.000000  -0.000000
   31  H  7  S    0.007530   0.156482  -0.000000   0.046715   0.020174
   32  H  8  S   -0.007534   0.156483  -0.000000  -0.046715   0.020173
   33  H  9  S    0.046899  -0.007861  -0.000000  -0.053859  -0.240353
   34  H 10  S   -0.046899  -0.007862  -0.000000   0.053860  -0.240353
   35  C 11  S    0.001096   0.016888  -0.000000   0.002738  -0.019892
   36  C 11  S    0.012444  -0.071295  -0.000000  -0.006592   0.082842
   37  C 11  X   -0.187742   0.087426  -0.000000   0.169156  -0.248218
   38  C 11  Y   -0.201626   0.208897  -0.000000  -0.217219   0.043390
   39  C 11  Z   -0.000000  -0.000000   0.173965  -0.000000  -0.000000
   40  C 12  S   -0.001096   0.016888  -0.000000  -0.002738  -0.019892
   41  C 12  S   -0.012442  -0.071296  -0.000000   0.006592   0.082842
   42  C 12  X   -0.187739  -0.087431  -0.000000   0.169155   0.248220
   43  C 12  Y   -0.201621  -0.208901  -0.000000  -0.217219  -0.043391
   44  C 12  Z   -0.000000  -0.000000   0.173966  -0.000000  -0.000000
   45  H 13  S    0.145586  -0.200295  -0.000000   0.259126  -0.066452
   46  H 14  S   -0.145582  -0.200298  -0.000000  -0.259126  -0.066453
   47  C 15  S    0.020528  -0.010516  -0.000000   0.003495   0.008331
   48  C 15  S   -0.056565   0.027064  -0.000000  -0.014409  -0.021278
   49  C 15  X    0.245619   0.048505  -0.000000  -0.136854   0.145064
   50  C 15  Y    0.119994  -0.295144  -0.000000   0.199589   0.027751
   51  C 15  Z   -0.000000  -0.000000   0.092452  -0.000000  -0.000000
   52  C 16  S   -0.020528  -0.010517  -0.000000  -0.003496   0.008331
   53  C 16  S    0.056564   0.027065  -0.000000   0.014409  -0.021278
   54  C 16  X    0.245619  -0.048499  -0.000000  -0.136853  -0.145065
   55  C 16  Y    0.119987   0.295146  -0.000000   0.199590  -0.027750
   56  C 16  Z   -0.000000  -0.000000   0.092452  -0.000000  -0.000000
   57  H 17  S    0.051430  -0.268047  -0.000000   0.231032  -0.052315
   58  H 18  S   -0.051424  -0.268048  -0.000000  -0.231032  -0.052316
   59  H 19  S    0.157848   0.143090  -0.000000  -0.212348   0.135545
   60  H 20  S   -0.157851   0.143086  -0.000000   0.212347   0.135546

                     31         32         33         34         35
                   -0.2838    -0.2599    -0.2087    -0.1916    -0.1494
                     A          A          A          A          A   
    1  C  1  S    0.006981   0.000000  -0.000000  -0.000000  -0.000000
    2  C  1  S   -0.033746   0.000000  -0.000000  -0.000000  -0.000000
    3  C  1  X    0.094796   0.000000  -0.000000  -0.000000  -0.000000
    4  C  1  Y   -0.295934   0.000000  -0.000000  -0.000000  -0.000000
    5  C  1  Z   -0.000000  -0.348962  -0.018018   0.005756  -0.387549
    6  C  2  S    0.006981   0.000000  -0.000000  -0.000000  -0.000000
    7  C  2  S   -0.033746   0.000000  -0.000000  -0.000000  -0.000000
    8  C  2  X   -0.094796   0.000000  -0.000000  -0.000000  -0.000000
    9  C  2  Y    0.295935   0.000000  -0.000000  -0.000000  -0.000000
   10  C  2  Z   -0.000000   0.348962  -0.018019  -0.005756   0.387549
   11  C  3  S    0.012018   0.000000  -0.000000  -0.000000  -0.000000
   12  C  3  S   -0.035631   0.000000  -0.000000  -0.000000  -0.000000
   13  C  3  X   -0.049038   0.000000  -0.000000  -0.000000  -0.000000
   14  C  3  Y    0.222153   0.000000  -0.000000  -0.000000  -0.000000
   15  C  3  Z   -0.000000  -0.131662  -0.179218   0.463633  -0.215045
   16  C  4  S    0.012019   0.000000  -0.000000  -0.000000  -0.000000
   17  C  4  S   -0.035632   0.000000  -0.000000  -0.000000  -0.000000
   18  C  4  X    0.049038   0.000000  -0.000000  -0.000000  -0.000000
   19  C  4  Y   -0.222154   0.000000  -0.000000  -0.000000  -0.000000
   20  C  4  Z   -0.000000   0.131663  -0.179219  -0.463633   0.215045
   21  C  5  S   -0.007622   0.000000  -0.000000  -0.000000  -0.000000
   22  C  5  S    0.021972   0.000000  -0.000000  -0.000000  -0.000000
   23  C  5  X    0.095903   0.000000  -0.000000  -0.000000  -0.000000
   24  C  5  Y   -0.280644   0.000000  -0.000000  -0.000000  -0.000000
   25  C  5  Z   -0.000000   0.132091  -0.176644   0.457529   0.230771
   26  C  6  S   -0.007622   0.000000  -0.000000  -0.000000  -0.000000
   27  C  6  S    0.021973   0.000000  -0.000000  -0.000000  -0.000000
   28  C  6  X   -0.095901   0.000000  -0.000000  -0.000000  -0.000000
   29  C  6  Y    0.280644   0.000000  -0.000000  -0.000000  -0.000000
   30  C  6  Z   -0.000000  -0.132091  -0.176645  -0.457528  -0.230771
   31  H  7  S    0.258114   0.000000  -0.000000  -0.000000  -0.000000
   32  H  8  S    0.258115   0.000000  -0.000000  -0.000000  -0.000000
   33  H  9  S   -0.151448   0.000000  -0.000000  -0.000000  -0.000000
   34  H 10  S   -0.151448   0.000000  -0.000000  -0.000000  -0.000000
   35  C 11  S    0.011128   0.000000  -0.000000  -0.000000  -0.000000
   36  C 11  S   -0.038421   0.000000  -0.000000  -0.000000  -0.000000
   37  C 11  X    0.111900   0.000000  -0.000000  -0.000000  -0.000000
   38  C 11  Y   -0.136826   0.000000  -0.000000  -0.000000  -0.000000
   39  C 11  Z   -0.000000   0.376486   0.413775  -0.000344  -0.223667
   40  C 12  S    0.011128   0.000000  -0.000000  -0.000000  -0.000000
   41  C 12  S   -0.038421   0.000000  -0.000000  -0.000000  -0.000000
   42  C 12  X   -0.111901   0.000000  -0.000000  -0.000000  -0.000000
   43  C 12  Y    0.136826   0.000000  -0.000000  -0.000000  -0.000000
   44  C 12  Z   -0.000000  -0.376485   0.413775   0.000343   0.223668
   45  H 13  S    0.182714   0.000000  -0.000000  -0.000000  -0.000000
   46  H 14  S    0.182713   0.000000  -0.000000  -0.000000  -0.000000
   47  C 15  S    0.004677   0.000000  -0.000000  -0.000000  -0.000000
   48  C 15  S   -0.018377   0.000000  -0.000000  -0.000000  -0.000000
   49  C 15  X   -0.037591   0.000000  -0.000000  -0.000000  -0.000000
   50  C 15  Y    0.109565   0.000000  -0.000000  -0.000000  -0.000000
   51  C 15  Z   -0.000000   0.271395   0.417955   0.009572  -0.397376
   52  C 16  S    0.004677   0.000000  -0.000000  -0.000000  -0.000000
   53  C 16  S   -0.018376   0.000000  -0.000000  -0.000000  -0.000000
   54  C 16  X    0.037591   0.000000  -0.000000  -0.000000  -0.000000
   55  C 16  Y   -0.109565   0.000000  -0.000000  -0.000000  -0.000000
   56  C 16  Z   -0.000000  -0.271394   0.417956  -0.009573   0.397377
   57  H 17  S    0.115910   0.000000  -0.000000  -0.000000  -0.000000
   58  H 18  S    0.115910   0.000000  -0.000000  -0.000000  -0.000000
   59  H 19  S   -0.089778   0.000000  -0.000000  -0.000000  -0.000000
   60  H 20  S   -0.089779   0.000000  -0.000000  -0.000000  -0.000000

                     36         37         38         39         40
                    0.0411     0.0938     0.1144     0.1859     0.2760
                     A          A          A          A          A   
    1  C  1  S    0.000000  -0.000000  -0.000000  -0.000000   0.000000
    2  C  1  S    0.000000  -0.000000  -0.000000  -0.000000   0.000000
    3  C  1  X    0.000000  -0.000000  -0.000000  -0.000000   0.000000
    4  C  1  Y    0.000000  -0.000000  -0.000000  -0.000000   0.000000
    5  C  1  Z   -0.442650  -0.031935   0.023444  -0.497236  -0.543481
    6  C  2  S    0.000000  -0.000000  -0.000000  -0.000000   0.000000
    7  C  2  S    0.000000  -0.000000  -0.000000  -0.000000   0.000000
    8  C  2  X    0.000000  -0.000000  -0.000000  -0.000000   0.000000
    9  C  2  Y    0.000000  -0.000000  -0.000000  -0.000000   0.000000
   10  C  2  Z   -0.442650  -0.031935  -0.023443  -0.497235   0.543482
   11  C  3  S    0.000000  -0.000000  -0.000000  -0.000000   0.000000
   12  C  3  S    0.000000  -0.000000  -0.000000  -0.000000   0.000000
   13  C  3  X    0.000000  -0.000000  -0.000000  -0.000000   0.000000
   14  C  3  Y    0.000000  -0.000000  -0.000000  -0.000000   0.000000
   15  C  3  Z    0.232249   0.582693  -0.240695   0.166743   0.464183
   16  C  4  S    0.000000  -0.000000  -0.000000  -0.000000   0.000000
   17  C  4  S    0.000000  -0.000000  -0.000000  -0.000000   0.000000
   18  C  4  X    0.000000  -0.000000  -0.000000  -0.000000   0.000000
   19  C  4  Y    0.000000  -0.000000  -0.000000  -0.000000   0.000000
   20  C  4  Z    0.232249   0.582694   0.240694   0.166743  -0.464183
   21  C  5  S    0.000000  -0.000000  -0.000000  -0.000000   0.000000
   22  C  5  S    0.000000  -0.000000  -0.000000  -0.000000   0.000000
   23  C  5  X    0.000000  -0.000000  -0.000000  -0.000000   0.000000
   24  C  5  Y    0.000000  -0.000000  -0.000000  -0.000000   0.000000
   25  C  5  Z    0.277557  -0.553233   0.232246   0.199208  -0.466877
   26  C  6  S    0.000000  -0.000000  -0.000000  -0.000000   0.000000
   27  C  6  S    0.000000  -0.000000  -0.000000  -0.000000   0.000000
   28  C  6  X    0.000000  -0.000000  -0.000000  -0.000000   0.000000
   29  C  6  Y    0.000000  -0.000000  -0.000000  -0.000000   0.000000
   30  C  6  Z    0.277557  -0.553234  -0.232246   0.199208   0.466876
   31  H  7  S    0.000000  -0.000000  -0.000000  -0.000000   0.000000
   32  H  8  S    0.000000  -0.000000  -0.000000  -0.000000   0.000000
   33  H  9  S    0.000000  -0.000000  -0.000000  -0.000000   0.000000
   34  H 10  S    0.000000  -0.000000  -0.000000  -0.000000   0.000000
   35  C 11  S    0.000000  -0.000000  -0.000000  -0.000000   0.000000
   36  C 11  S    0.000000  -0.000000  -0.000000  -0.000000   0.000000
   37  C 11  X    0.000000  -0.000000  -0.000000  -0.000000   0.000000
   38  C 11  Y    0.000000  -0.000000  -0.000000  -0.000000   0.000000
   39  C 11  Z   -0.256149   0.003798  -0.522167   0.529124  -0.287730
   40  C 12  S    0.000000  -0.000000  -0.000000  -0.000000   0.000000
   41  C 12  S    0.000000  -0.000000  -0.000000  -0.000000   0.000000
   42  C 12  X    0.000000  -0.000000  -0.000000  -0.000000   0.000000
   43  C 12  Y    0.000000  -0.000000  -0.000000  -0.000000   0.000000
   44  C 12  Z   -0.256148   0.003799   0.522167   0.529125   0.287730
   45  H 13  S    0.000000  -0.000000  -0.000000  -0.000000   0.000000
   46  H 14  S    0.000000  -0.000000  -0.000000  -0.000000   0.000000
   47  C 15  S    0.000000  -0.000000  -0.000000  -0.000000   0.000000
   48  C 15  S    0.000000  -0.000000  -0.000000  -0.000000   0.000000
   49  C 15  X    0.000000  -0.000000  -0.000000  -0.000000   0.000000
   50  C 15  Y    0.000000  -0.000000  -0.000000  -0.000000   0.000000
   51  C 15  Z    0.449631   0.010777   0.523103  -0.379677   0.156149
   52  C 16  S    0.000000  -0.000000  -0.000000  -0.000000   0.000000
   53  C 16  S    0.000000  -0.000000  -0.000000  -0.000000   0.000000
   54  C 16  X    0.000000  -0.000000  -0.000000  -0.000000   0.000000
   55  C 16  Y    0.000000  -0.000000  -0.000000  -0.000000   0.000000
   56  C 16  Z    0.449630   0.010776  -0.523103  -0.379678  -0.156149
   57  H 17  S    0.000000  -0.000000  -0.000000  -0.000000   0.000000
   58  H 18  S    0.000000  -0.000000  -0.000000  -0.000000   0.000000
   59  H 19  S    0.000000  -0.000000  -0.000000  -0.000000   0.000000
   60  H 20  S    0.000000  -0.000000  -0.000000  -0.000000   0.000000

                     41         42         43         44         45
                    0.3361     0.3443     0.3832     0.3849     0.4140
                     A          A          A          A          A   
    1  C  1  S    0.068208   0.033717   0.058309   0.022670   0.052743
    2  C  1  S   -0.401361  -0.198071  -0.338190  -0.136968  -0.318204
    3  C  1  X    0.273641   0.135622   0.461487  -0.075603   0.155333
    4  C  1  Y   -0.087104  -0.284997   0.098075  -0.103560   0.258855
    5  C  1  Z   -0.000000  -0.000000   0.000000  -0.000000  -0.000000
    6  C  2  S    0.068209  -0.033715  -0.058314   0.022664   0.052747
    7  C  2  S   -0.401371   0.198058   0.338218  -0.136938  -0.318232
    8  C  2  X   -0.273647   0.135613   0.461479   0.075655  -0.155327
    9  C  2  Y    0.087114  -0.284994   0.098068   0.103570  -0.258861
   10  C  2  Z   -0.000000  -0.000000   0.000000  -0.000000  -0.000000
   11  C  3  S    0.028153  -0.005931  -0.025014  -0.064409   0.072582
   12  C  3  S   -0.173529   0.028641   0.152064   0.393318  -0.443822
   13  C  3  X    0.053603   0.010695   0.229840  -0.124247  -0.164652
   14  C  3  Y   -0.304522  -0.355452   0.130514   0.002289  -0.048351
   15  C  3  Z   -0.000000  -0.000000   0.000000  -0.000000  -0.000000
   16  C  4  S    0.028153   0.005932   0.025021  -0.064408   0.072578
   17  C  4  S   -0.173526  -0.028647  -0.152106   0.393310  -0.443796
   18  C  4  X   -0.053604   0.010694   0.229820   0.124274   0.164652
   19  C  4  Y    0.304534  -0.355443   0.130514  -0.002277   0.048349
   20  C  4  Z   -0.000000  -0.000000   0.000000  -0.000000  -0.000000
   21  C  5  S    0.046509   0.015854   0.005045  -0.019966  -0.101418
   22  C  5  S   -0.281022  -0.096557  -0.022973   0.127651   0.619688
   23  C  5  X   -0.124325   0.005520   0.321825   0.206730  -0.010243
   24  C  5  Y   -0.202604  -0.286018   0.266271   0.174051  -0.038641
   25  C  5  Z   -0.000000  -0.000000   0.000000  -0.000000  -0.000000
   26  C  6  S    0.046510  -0.015852  -0.005040  -0.019965  -0.101411
   27  C  6  S   -0.281026   0.096548   0.022943   0.127645   0.619646
   28  C  6  X    0.124324   0.005524   0.321852  -0.206692   0.010256
   29  C  6  Y    0.202613  -0.286012   0.266289  -0.174022   0.038644
   30  C  6  Z   -0.000000  -0.000000   0.000000  -0.000000  -0.000000
   31  H  7  S    0.413806   0.321924  -0.115664  -0.291563   0.226963
   32  H  8  S    0.413815  -0.321911   0.115697  -0.291557   0.226947
   33  H  9  S    0.423827   0.270877  -0.405666  -0.295030  -0.223309
   34  H 10  S    0.423835  -0.270863   0.405708  -0.294980  -0.223280
   35  C 11  S   -0.049995  -0.007726   0.093433   0.063596  -0.024748
   36  C 11  S    0.281958   0.047154  -0.545855  -0.382264   0.157403
   37  C 11  X   -0.338024   0.216635   0.332330  -0.072231  -0.234350
   38  C 11  Y    0.244815  -0.344575  -0.058299   0.338367  -0.139287
   39  C 11  Z   -0.000000  -0.000000   0.000000  -0.000000  -0.000000
   40  C 12  S   -0.049995   0.007725  -0.093439   0.063586  -0.024746
   41  C 12  S    0.281955  -0.047145   0.545892  -0.382204   0.157392
   42  C 12  X    0.338015   0.216646   0.332319   0.072266   0.234342
   43  C 12  Y   -0.244803  -0.344583  -0.058265  -0.338374   0.139274
   44  C 12  Z   -0.000000  -0.000000   0.000000  -0.000000  -0.000000
   45  H 13  S    0.144522  -0.433949   0.158685   0.579624  -0.169321
   46  H 14  S    0.144509   0.433954  -0.158743   0.579606  -0.169307
   47  C 15  S    0.040936  -0.002542  -0.050914  -0.019941  -0.103466
   48  C 15  S   -0.237025   0.019244   0.297608   0.110920   0.647569
   49  C 15  X   -0.148323   0.166471   0.142508  -0.237758   0.076923
   50  C 15  Y    0.138284  -0.303222  -0.101401   0.304395   0.237840
   51  C 15  Z   -0.000000  -0.000000   0.000000  -0.000000  -0.000000
   52  C 16  S    0.040936   0.002544   0.050917  -0.019935  -0.103459
   53  C 16  S   -0.237023  -0.019252  -0.297626   0.110883   0.647525
   54  C 16  X    0.148318   0.166476   0.142483   0.237774  -0.076909
   55  C 16  Y   -0.138274  -0.303227  -0.101365  -0.304404  -0.237826
   56  C 16  Z   -0.000000  -0.000000   0.000000  -0.000000  -0.000000
   57  H 17  S   -0.107832   0.323141   0.010673  -0.391522  -0.513437
   58  H 18  S   -0.107821  -0.323145  -0.010625  -0.391519  -0.513406
   59  H 19  S    0.358617  -0.283747  -0.352098   0.252414  -0.320984
   60  H 20  S    0.358607   0.283760   0.352074   0.252454  -0.320954

                     46         47         48         49         50
                    0.4149     0.4294     0.4430     0.4574     0.4820
                     A          A          A          A          A   
    1  C  1  S    0.081195   0.022161  -0.128948  -0.060862   0.037240
    2  C  1  S   -0.476284  -0.138388   0.782378   0.361884  -0.232747
    3  C  1  X    0.017440  -0.243342   0.034024   0.112149  -0.048933
    4  C  1  Y    0.114735   0.110979  -0.019750   0.145637  -0.347930
    5  C  1  Z   -0.000000  -0.000000   0.000000   0.000000   0.000000
    6  C  2  S   -0.081194  -0.022165  -0.128947   0.060861   0.037238
    7  C  2  S    0.476278   0.138415   0.782373  -0.361874  -0.232738
    8  C  2  X    0.017425  -0.243346  -0.034025   0.112154   0.048928
    9  C  2  Y    0.114717   0.110980   0.019740   0.145641   0.347932
   10  C  2  Z   -0.000000  -0.000000   0.000000   0.000000   0.000000
   11  C  3  S   -0.074132  -0.059532   0.079991   0.058388  -0.111788
   12  C  3  S    0.440562   0.368816  -0.499322  -0.353682   0.706444
   13  C  3  X    0.023033  -0.315103   0.282979   0.129326   0.117295
   14  C  3  Y    0.100228   0.316512  -0.018822   0.148221  -0.093148
   15  C  3  Z   -0.000000  -0.000000   0.000000   0.000000   0.000000
   16  C  4  S    0.074139   0.059534   0.079989  -0.058387  -0.111786
   17  C  4  S   -0.440603  -0.368830  -0.499309   0.353680   0.706436
   18  C  4  X    0.023042  -0.315112  -0.282979   0.129318  -0.117296
   19  C  4  Y    0.100227   0.316508   0.018803   0.148228   0.093147
   20  C  4  Z   -0.000000  -0.000000   0.000000   0.000000   0.000000
   21  C  5  S    0.101386   0.007389   0.065963  -0.066394   0.097666
   22  C  5  S   -0.613036  -0.033169  -0.411868   0.407331  -0.619468
   23  C  5  X   -0.133132  -0.110419  -0.244788   0.142993   0.180273
   24  C  5  Y   -0.005176   0.209375   0.239556   0.172598  -0.139340
   25  C  5  Z   -0.000000  -0.000000   0.000000   0.000000   0.000000
   26  C  6  S   -0.101392  -0.007386   0.065964   0.066396   0.097664
   27  C  6  S    0.613074   0.033156  -0.411874  -0.407344  -0.619456
   28  C  6  X   -0.133125  -0.110412   0.244786   0.142994  -0.180276
   29  C  6  Y   -0.005181   0.209364  -0.239565   0.172596   0.139341
   30  C  6  Z   -0.000000  -0.000000   0.000000   0.000000   0.000000
   31  H  7  S   -0.322279  -0.603229   0.323962   0.077435  -0.219853
   32  H  8  S    0.322295   0.603234   0.323938  -0.077426  -0.219850
   33  H  9  S    0.353980  -0.044554   0.192671  -0.477257   0.333932
   34  H 10  S   -0.353994   0.044557   0.192664   0.477263   0.333924
   35  C 11  S    0.040780  -0.071253   0.092250  -0.070860  -0.030572
   36  C 11  S   -0.257223   0.446847  -0.556913   0.428980   0.213576
   37  C 11  X    0.173496  -0.050930   0.085126   0.119083  -0.074549
   38  C 11  Y    0.161941  -0.224813   0.116094  -0.063111  -0.030677
   39  C 11  Z   -0.000000  -0.000000   0.000000   0.000000   0.000000
   40  C 12  S   -0.040780   0.071256   0.092248   0.070862  -0.030572
   41  C 12  S    0.257220  -0.446864  -0.556901  -0.428992   0.213578
[...]
   14             0.006088   0.034577   0.039878   0.000817   0.008072
   15             0.020275   0.183515   0.350692   0.004804   0.275541
   16             0.020275   0.183515   0.350692   0.004804   0.275541
   17             0.001905   0.018072   0.037140   0.001542   0.034726
   18             0.001905   0.018072   0.037139   0.001542   0.034726
   19             0.000986   0.014533   0.038669   0.000478   0.048672
   20             0.000986   0.014533   0.038669   0.000478   0.048672

                     16         17         18         19         20

                  2.000000   2.000000   2.000000   2.000000   2.000000

    1             0.195916   0.225746   0.087624   0.130283   0.093811
    2             0.195916   0.225745   0.087625   0.130283   0.093811
    3             0.124170   0.282585   0.048727   0.169679   0.144312
    4             0.124170   0.282586   0.048727   0.169679   0.144312
    5             0.156412   0.227156   0.048122   0.233343   0.097364
    6             0.156413   0.227157   0.048122   0.233343   0.097365
    7             0.001802   0.126353   0.009494   0.039281   0.063341
    8             0.001802   0.126353   0.009494   0.039282   0.063341
    9             0.053330   0.029969   0.012510   0.112697   0.030088
   10             0.053330   0.029969   0.012510   0.112697   0.030088
   11             0.173827   0.038864   0.260495   0.084214   0.201910
   12             0.173828   0.038864   0.260494   0.084214   0.201911
   13             0.031187   0.005386   0.118453   0.048980   0.078599
   14             0.031187   0.005386   0.118452   0.048981   0.078600
   15             0.164040   0.041715   0.242067   0.110025   0.177599
   16             0.164041   0.041715   0.242066   0.110026   0.177600
   17             0.052595   0.001944   0.107758   0.034700   0.111402
   18             0.052595   0.001944   0.107758   0.034700   0.111402
   19             0.046719   0.020281   0.064751   0.036797   0.001572
   20             0.046719   0.020281   0.064750   0.036798   0.001572

                     21         22         23         24         25

                  2.000000   2.000000   2.000000   2.000000   2.000000

    1             0.125822   0.114439   0.215023   0.009174   0.036160
    2             0.125822   0.114440   0.215023   0.009174   0.036161
    3             0.125966   0.210488   0.044829   0.030088   0.353495
    4             0.125966   0.210487   0.044829   0.030088   0.353495
    5             0.097776   0.185759   0.203530   0.069175   0.257273
    6             0.097776   0.185760   0.203531   0.069174   0.257272
    7             0.033058   0.150698   0.004126   0.000054   0.180634
    8             0.033058   0.150697   0.004126   0.000054   0.180634
    9             0.011472   0.159227   0.053705   0.037358   0.131675
   10             0.011473   0.159227   0.053706   0.037357   0.131674
   11             0.212728   0.055601   0.108035   0.221465   0.013351
   12             0.212727   0.055600   0.108036   0.221466   0.013351
   13             0.081998   0.001993   0.000408   0.064153   0.000509
   14             0.081997   0.001993   0.000408   0.064153   0.000509
   15             0.190388   0.082093   0.210227   0.362899   0.018371
   16             0.190387   0.082092   0.210227   0.362903   0.018371
   17             0.016634   0.005636   0.138533   0.001249   0.007766
   18             0.016634   0.005636   0.138533   0.001249   0.007766
   19             0.104158   0.034068   0.021583   0.204382   0.000766
   20             0.104157   0.034067   0.021583   0.204384   0.000766

                     26         27         28         29         30

                  2.000000   2.000000   2.000000   2.000000   2.000000

    1             0.164538   0.031016   0.343397   0.170783   0.212609
    2             0.164536   0.031018   0.343396   0.170785   0.212607
    3             0.170923   0.097013   0.269157   0.016526   0.223814
    4             0.170926   0.097011   0.269156   0.016526   0.223813
    5             0.119479   0.064046   0.268248   0.053902   0.150736
    6             0.119483   0.064042   0.268249   0.053902   0.150737
    7             0.000073   0.062162   0.000000   0.005273   0.000546
    8             0.000073   0.062162   0.000000   0.005273   0.000546
    9             0.005940   0.000106   0.000000   0.006258   0.128569
   10             0.005940   0.000106   0.000000   0.006258   0.128569
   11             0.201207   0.147799   0.093053   0.200033   0.166781
   12             0.201199   0.147806   0.093053   0.200032   0.166782
   13             0.056294   0.102560   0.000000   0.158795   0.011473
   14             0.056290   0.102563   0.000000   0.158795   0.011474
   15             0.207295   0.258132   0.026146   0.158287   0.054833
   16             0.207292   0.258135   0.026146   0.158287   0.054833
   17             0.007551   0.186029   0.000000   0.124393   0.007076
   18             0.007549   0.186030   0.000000   0.124394   0.007076
   19             0.066704   0.051132   0.000000   0.105749   0.043563
   20             0.066707   0.051130   0.000000   0.105749   0.043563

                     31         32         33         34         35

                  2.000000   2.000000   2.000000   2.000000   2.000000

    1             0.226083   0.325180   0.000631   0.000045   0.324034
    2             0.226085   0.325181   0.000631   0.000045   0.324034
    3             0.130436   0.045874   0.078059   0.504756   0.103491
    4             0.130436   0.045875   0.078060   0.504755   0.103491
    5             0.209413   0.047349   0.076108   0.495064   0.114320
    6             0.209412   0.047349   0.076109   0.495063   0.114320
    7             0.151498   0.000000   0.000000   0.000000   0.000000
    8             0.151498   0.000000   0.000000   0.000000   0.000000
    9             0.054196   0.000000   0.000000   0.000000   0.000000
   10             0.054196   0.000000   0.000000   0.000000   0.000000
   11             0.076150   0.382116   0.415529   0.000011   0.107353
   12             0.076150   0.382114   0.415530   0.000011   0.107353
   13             0.074332   0.000000   0.000000   0.000000   0.000000
   14             0.074331   0.000000   0.000000   0.000000   0.000000
   15             0.032951   0.199481   0.429671   0.000124   0.350802
   16             0.032951   0.199480   0.429671   0.000124   0.350802
   17             0.028438   0.000000   0.000000   0.000000   0.000000
   18             0.028438   0.000000   0.000000   0.000000   0.000000
   19             0.016503   0.000000   0.000000   0.000000   0.000000
   20             0.016503   0.000000   0.000000   0.000000   0.000000

               ----- POPULATIONS IN EACH AO -----
                             MULLIKEN      LOWDIN
              1  C  1  S      1.99065     1.98480
              2  C  1  S      1.14630     1.04762
              3  C  1  X      0.92962     0.97554
              4  C  1  Y      0.94461     0.99599
              5  C  1  Z      0.99329     0.99238
              6  C  2  S      1.99065     1.98480
              7  C  2  S      1.14630     1.04762
              8  C  2  X      0.92962     0.97554
              9  C  2  Y      0.94461     0.99599
             10  C  2  Z      0.99329     0.99238
             11  C  3  S      1.99080     1.98530
             12  C  3  S      1.16033     1.04679
             13  C  3  X      0.95068     1.00334
             14  C  3  Y      0.97324     1.00667
             15  C  3  Z      1.00134     1.00167
             16  C  4  S      1.99080     1.98530
             17  C  4  S      1.16033     1.04679
             18  C  4  X      0.95068     1.00334
             19  C  4  Y      0.97324     1.00667
             20  C  4  Z      1.00134     1.00167
             21  C  5  S      1.99077     1.98525
             22  C  5  S      1.15795     1.04418
             23  C  5  X      0.96170     1.00756
             24  C  5  Y      0.96552     1.00567
             25  C  5  Z      1.00109     1.00148
             26  C  6  S      1.99077     1.98525
             27  C  6  S      1.15795     1.04418
             28  C  6  X      0.96170     1.00756
             29  C  6  Y      0.96552     1.00567
             30  C  6  Z      1.00109     1.00148
             31  H  7  S      0.92253     0.95821
             32  H  8  S      0.92253     0.95821
             33  H  9  S      0.92096     0.95645
             34  H 10  S      0.92096     0.95645
             35  C 11  S      1.99088     1.98539
             36  C 11  S      1.16295     1.04812
             37  C 11  X      0.93549     0.98638
             38  C 11  Y      0.98880     1.02147
             39  C 11  Z      0.99806     0.99744
             40  C 12  S      1.99088     1.98539
             41  C 12  S      1.16295     1.04812
             42  C 12  X      0.93549     0.98638
             43  C 12  Y      0.98880     1.02147
             44  C 12  Z      0.99806     0.99744
             45  H 13  S      0.92330     0.95896
             46  H 14  S      0.92330     0.95896
             47  C 15  S      1.99097     1.98568
             48  C 15  S      1.17801     1.04747
             49  C 15  X      0.98786     1.02549
             50  C 15  Y      0.99142     1.02568
             51  C 15  Z      1.00622     1.00704
             52  C 16  S      1.99097     1.98568
             53  C 16  S      1.17801     1.04747
             54  C 16  X      0.98786     1.02549
             55  C 16  Y      0.99142     1.02568
             56  C 16  Z      1.00622     1.00704
             57  H 17  S      0.92384     0.95693
             58  H 18  S      0.92384     0.95693
             59  H 19  S      0.92081     0.95507
             60  H 20  S      0.92082     0.95507

          ----- MULLIKEN ATOMIC OVERLAP POPULATIONS -----
          (OFF-DIAGONAL ELEMENTS NEED TO BE MULTIPLIED BY 2)

             1           2           3           4           5

    1    4.7788397
    2   -0.0097448   4.7788431
    3    0.4887079  -0.0271322   4.8151234
    4   -0.0271320   0.4887075  -0.0110737   4.8151227
    5   -0.0269364   0.4882403   0.5088622  -0.0307156   4.8105787
    6    0.4882403  -0.0269363  -0.0307155   0.5088621  -0.0104789
    7   -0.0253114   0.0013329   0.3878739   0.0000395  -0.0251963
    8    0.0013329  -0.0253114   0.0000395   0.3878739   0.0013416
    9    0.0013284  -0.0245434  -0.0252753   0.0013455   0.3878202
   10   -0.0245433   0.0013284   0.0013455  -0.0252753   0.0000322
   11    0.0000154   0.4117265   0.0007467  -0.0287841  -0.0239913
   12    0.4117267   0.0000154  -0.0287842   0.0007467   0.0008166
   13   -0.0000007  -0.0261067  -0.0000170  -0.0039821   0.0010845
   14   -0.0261066  -0.0000007  -0.0039821  -0.0000170   0.0000221
   15    0.0000001  -0.0237412   0.0000143   0.0006790  -0.0039201
   16   -0.0237412   0.0000001   0.0006790   0.0000143  -0.0000068
   17   -0.0000002  -0.0035223  -0.0000120   0.0000124  -0.0005442
   18   -0.0035223  -0.0000002   0.0000124  -0.0000120  -0.0000004
   19    0.0000000   0.0013167   0.0000001  -0.0000156   0.0000173
   20    0.0013167   0.0000000  -0.0000156   0.0000001   0.0000001

             6           7           8           9          10

    6    4.8105795
    7    0.0013416   0.5891704
    8   -0.0251963   0.0000019   0.5891703
    9    0.0000322  -0.0038233  -0.0000340   0.5871637
   10    0.3878201  -0.0000340  -0.0038233   0.0000019   0.5871637
   11    0.0008166  -0.0000142  -0.0039147  -0.0030198  -0.0000151
   12   -0.0239914  -0.0039147  -0.0000142  -0.0000151  -0.0030198
   13    0.0000221   0.0000004   0.0010379   0.0000184  -0.0000017
   14    0.0010845   0.0010378   0.0000004  -0.0000017   0.0000184
   15   -0.0000068   0.0000001   0.0000296  -0.0005882   0.0000001
   16   -0.0039201   0.0000296   0.0000001   0.0000001  -0.0005882
   17   -0.0000004   0.0000022   0.0000008   0.0005622   0.0000000
   18   -0.0005442   0.0000008   0.0000022   0.0000000   0.0005622
   19    0.0000001  -0.0000000  -0.0000023  -0.0000168  -0.0000000
   20    0.0000173  -0.0000023  -0.0000000  -0.0000000  -0.0000168

            11          12          13          14          15

   11    4.7981976
   12    0.0000001   4.7981981
   13    0.3862079  -0.0000000   0.5956979
   14   -0.0000000   0.3862079   0.0000000   0.5956980
   15    0.5860369  -0.0000000  -0.0276244   0.0000000   4.8495102
   16   -0.0000000   0.5860369   0.0000000  -0.0276244  -0.0000000
   17   -0.0238048   0.0000000   0.0020414  -0.0000000   0.3858702
   18    0.0000000  -0.0238048  -0.0000000   0.0020414   0.0000000
   19   -0.0240249  -0.0000000  -0.0050774  -0.0000000   0.3882216
   20   -0.0000000  -0.0240249  -0.0000000  -0.0050774   0.0000000

            16          17          18          19          20

   16    4.8495103
   17    0.0000000   0.5869632
   18    0.3858702  -0.0000000   0.5869633
   19    0.0000000  -0.0237277   0.0000000   0.5841240
   20    0.3882216   0.0000000  -0.0237277  -0.0000000   0.5841240

          TOTAL MULLIKEN AND LOWDIN ATOMIC POPULATIONS
       ATOM         MULL.POP.    CHARGE          LOW.POP.     CHARGE
    1 C             6.004469   -0.004469         5.996318    0.003682
    2 C             6.004472   -0.004472         5.996319    0.003681
    3 C             6.076397   -0.076397         6.043768   -0.043768
    4 C             6.076396   -0.076396         6.043767   -0.043767
    5 C             6.077026   -0.077026         6.044139   -0.044139
    6 C             6.077026   -0.077026         6.044139   -0.044139
    7 H             0.922535    0.077465         0.958207    0.041793
    8 H             0.922535    0.077465         0.958207    0.041793
    9 H             0.920955    0.079045         0.956452    0.043548
   10 H             0.920955    0.079045         0.956452    0.043548
   11 C             6.076179   -0.076179         6.038795   -0.038795
   12 C             6.076179   -0.076179         6.038795   -0.038795
   13 H             0.923301    0.076699         0.958963    0.041037
   14 H             0.923301    0.076699         0.958963    0.041037
   15 C             6.154481   -0.154481         6.091359   -0.091359
   16 C             6.154481   -0.154481         6.091359   -0.091359
   17 H             0.923841    0.076159         0.956930    0.043070
   18 H             0.923841    0.076159         0.956930    0.043070
   19 H             0.920815    0.079185         0.955068    0.044932
   20 H             0.920815    0.079185         0.955068    0.044932

          -------------------------------
          BOND ORDER AND VALENCE ANALYSIS     BOND ORDER THRESHOLD=0.050
          -------------------------------

                   BOND                       BOND                       BOND
  ATOM PAIR DIST  ORDER      ATOM PAIR DIST  ORDER      ATOM PAIR DIST  ORDER
    1   2  2.872  0.099        1   3  1.423  1.363        1   6  1.421  1.366
    1  12  1.498  1.066        2   4  1.423  1.363        2   5  1.421  1.366
    2  11  1.498  1.066        3   4  2.804  0.099        3   5  1.402  1.465
    3   7  1.099  0.961        4   6  1.402  1.465        4   8  1.099  0.961
    5   6  2.816  0.102        5   9  1.098  0.960        6  10  1.098  0.960
   11  13  1.101  0.959       11  15  1.344  1.901       12  14  1.101  0.959
   12  16  1.344  1.901       15  17  1.096  0.967       15  19  1.096  0.969
   16  18  1.096  0.967       16  20  1.096  0.969

                       TOTAL       BONDED        FREE
      ATOM            VALENCE     VALENCE     VALENCE
    1 C                 3.973       3.973       0.000
    2 C                 3.973       3.973       0.000
    3 C                 3.969       3.969       0.000
    4 C                 3.969       3.969       0.000
    5 C                 3.970       3.970       0.000
    6 C                 3.970       3.970       0.000
    7 H                 0.994       0.994       0.000
    8 H                 0.994       0.994       0.000
    9 H                 0.994       0.994       0.000
   10 H                 0.994       0.994       0.000
   11 C                 3.968       3.968       0.000
   12 C                 3.968       3.968       0.000
   13 H                 0.994       0.994       0.000
   14 H                 0.994       0.994       0.000
   15 C                 3.965       3.965       0.000
   16 C                 3.965       3.965       0.000
   17 H                 0.994       0.994      -0.000
   18 H                 0.994       0.994      -0.000
   19 H                 0.994       0.994       0.000
   20 H                 0.994       0.994       0.000

          ---------------------
          ELECTROSTATIC MOMENTS
          ---------------------

 POINT   1           X           Y           Z (BOHR)    CHARGE
                -0.000000    0.000000    0.000000        0.00 (A.U.)
         DX          DY          DZ         /D/  (DEBYE)
     0.000003   -0.000002   -0.000000    0.000004
 ...... END OF PROPERTY EVALUATION ......
 CPU     0: STEP CPU TIME=     0.02 TOTAL CPU TIME=      153.2 (    2.6 MIN)
 TOTAL WALL CLOCK TIME=      205.9 SECONDS, CPU UTILIZATION IS  74.40%
  $VIB   
          IVIB=   0 IATOM=   0 ICOORD=   0 E=     -382.0506677663
  6.275094985E-06-1.517169117E-05 0.000000000E+00-6.279989516E-06 1.518711804E-05
  0.000000000E+00 9.882894760E-06 3.904384543E-05 0.000000000E+00-9.880389605E-06
 -3.905627526E-05 0.000000000E+00-8.285153993E-06-3.401847349E-05 0.000000000E+00
  8.290893964E-06 3.402165816E-05 0.000000000E+00-2.400979216E-06-5.232818622E-06
  0.000000000E+00 2.399358639E-06 5.232492905E-06 0.000000000E+00-8.291845768E-06
  1.928765751E-05 0.000000000E+00 8.291224586E-06-1.928959526E-05 0.000000000E+00
 -1.727679480E-06-2.705951800E-05 0.000000000E+00 1.727883242E-06 2.705362637E-05
  0.000000000E+00 2.509088306E-06 9.246778746E-06 0.000000000E+00-2.508433653E-06
 -9.246120902E-06 0.000000000E+00 1.473394419E-05-1.432623980E-05 0.000000000E+00
 -1.473689553E-05 1.432823010E-05 0.000000000E+00 6.021781609E-06 7.404114921E-06
  0.000000000E+00-6.019673686E-06-7.405511767E-06 0.000000000E+00-1.070940219E-05
  1.306692370E-05 0.000000000E+00 1.070827836E-05-1.306620162E-05 0.000000000E+00
  3.101950158E-06-2.096392358E-06-1.743685700E-14
 ......END OF GEOMETRY SEARCH......
 CPU     0: STEP CPU TIME=     0.00 TOTAL CPU TIME=      153.2 (    2.6 MIN)
 TOTAL WALL CLOCK TIME=      205.9 SECONDS, CPU UTILIZATION IS  74.39%

 AN AIMPAC INPUT FILE IS BEING WRITTEN TO FILE   7

               709022  WORDS OF DYNAMIC MEMORY USED
 EXECUTION OF GAMESS TERMINATED NORMALLY Thu Aug 10 21:22:41 2017
 DDI: 263640 bytes (0.3 MB / 0 MWords) used by master data server.

 ----------------------------------------
 CPU timing information for all processes
 ========================================
 0: 152.336 + 0.884 = 153.220
 1: 157.16 + 0.720 = 157.736
 2: 142.848 + 0.680 = 143.528
 3: 141.616 + 0.552 = 142.168
 ----------------------------------------
 ddikick.x: exited gracefully.
----- accounting info -----
Files used on the master node firzens were:
-rw-r--r-- 1 sagar sagar    1460 Aug 10 21:19 /scr/sagar/dvb_gopt_a.F05
-rw-rw-r-- 1 sagar sagar 2340208 Aug 10 21:22 /scr/sagar/dvb_gopt_a.F08
-rw-rw-r-- 1 sagar sagar 2160192 Aug 10 21:22 /scr/sagar/dvb_gopt_a.F08.001
-rw-rw-r-- 1 sagar sagar 1980176 Aug 10 21:22 /scr/sagar/dvb_gopt_a.F08.002
-rw-rw-r-- 1 sagar sagar 1980176 Aug 10 21:22 /scr/sagar/dvb_gopt_a.F08.003
-rw-rw-r-- 1 sagar sagar 1701440 Aug 10 21:22 /scr/sagar/dvb_gopt_a.F10
-rw-rw-r-- 1 sagar sagar 5200544 Aug 10 21:22 /scr/sagar/dvb_gopt_a.F22
-rw-rw-r-- 1 sagar sagar 5200544 Aug 10 21:22 /scr/sagar/dvb_gopt_a.F22.001
-rw-rw-r-- 1 sagar sagar 5200544 Aug 10 21:22 /scr/sagar/dvb_gopt_a.F22.002
-rw-rw-r-- 1 sagar sagar 5200544 Aug 10 21:22 /scr/sagar/dvb_gopt_a.F22.003
Thu Aug 10 21:22:44 IST 2017
0.140u 0.004s 3:29.16 0.0%	0+0k 8+16io 1pf+0w
