----- GAMESS execution script 'rungms' -----
This job is running on host firzens
under operating system Linux at Thu Aug 10 21:38:29 IST 2017
Available scratch disk space (Kbyte units) at beginning of the job is
Filesystem     1K-blocks      Used Available Use% Mounted on
/dev/sda11     254243428 234994828   6310720  98% /
GAMESS temporary binary files will be written to /scr/sagar
GAMESS supplementary output files will be written to /home/sagar/gamess/scratch
Copying input file dvb_td.inp to your run's scratch directory...
 
Assuming a single but multicore node.
 

 Distributed Data Interface kickoff program.
 Initiating 4 compute processes on 1 nodes to run the following command:
 /home/sagar/gamess/gamess.02.x dvb_td 

          ******************************************************
          *         GAMESS VERSION = 20 APR 2017 (R1)          *
          *             FROM IOWA STATE UNIVERSITY             *
          * M.W.SCHMIDT, K.K.BALDRIDGE, J.A.BOATZ, S.T.ELBERT, *
          *   M.S.GORDON, J.H.JENSEN, S.KOSEKI, N.MATSUNAGA,   *
          *          K.A.NGUYEN, S.J.SU, T.L.WINDUS,           *
          *       TOGETHER WITH M.DUPUIS, J.A.MONTGOMERY       *
          *         J.COMPUT.CHEM.  14, 1347-1363(1993)        *
          **************** 64 BIT LINUX VERSION ****************

  SINCE 1993, STUDENTS AND POSTDOCS WORKING AT IOWA STATE UNIVERSITY
  AND ALSO IN THEIR VARIOUS JOBS AFTER LEAVING ISU HAVE MADE IMPORTANT
  CONTRIBUTIONS TO THE CODE:
     IVANA ADAMOVIC, CHRISTINE AIKENS, YURI ALEXEEV, POOJA ARORA,
     ANDREY ASADCHEV, ROB BELL, PRADIPTA BANDYOPADHYAY, JONATHAN BENTZ,
     BRETT BODE, KURT BRORSEN, CALEB CARLIN, GALINA CHABAN, WEI CHEN,
     CHEOL HO CHOI, PAUL DAY, ALBERT DEFUSCO, NUWAN DESILVA, TIM DUDLEY,
     DMITRI FEDOROV, GRAHAM FLETCHER, MARK FREITAG, KURT GLAESEMANN,
     DAN KEMP, GRANT MERRILL, NORIYUKI MINEZAWA, JONATHAN MULLIN,
     TAKESHI NAGATA, SEAN NEDD, HEATHER NETZLOFF, BOSILJKA NJEGIC, RYAN OLSON,
     MIKE PAK, SPENCER PRUITT, LUKE ROSKOP, JIM SHOEMAKER, LYUDMILA SLIPCHENKO,
     TONY SMITH, SAROM SOK LEANG, JIE SONG, TETSUYA TAKETSUGU, SIMON WEBB,
     PENG XU, SOOHAENG YOO, FEDERICO ZAHARIEV

  ADDITIONAL CODE HAS BEEN PROVIDED BY COLLABORATORS IN OTHER GROUPS:
     IOWA STATE UNIVERSITY:
          JOE IVANIC, AARON WEST, LAIMUTIS BYTAUTAS, KLAUS RUEDENBERG
     UNIVERSITY OF TOKYO: KIMIHIKO HIRAO, TAKAHITO NAKAJIMA,
          TAKAO TSUNEDA, MUNEAKI KAMIYA, SUSUMU YANAGISAWA,
          KIYOSHI YAGI, MAHITO CHIBA, SEIKEN TOKURA, NAOAKI KAWAKAMI
     UNIVERSITY OF AARHUS: FRANK JENSEN
     UNIVERSITY OF IOWA: VISVALDAS KAIRYS, HUI LI
     NATIONAL INST. OF STANDARDS AND TECHNOLOGY: WALT STEVENS, DAVID GARMER
     UNIVERSITY OF PISA: BENEDETTA MENNUCCI, JACOPO TOMASI
     UNIVERSITY OF MEMPHIS: HENRY KURTZ, PRAKASHAN KORAMBATH
     UNIVERSITY OF ALBERTA: TOBY ZENG, MARIUSZ KLOBUKOWSKI
     UNIVERSITY OF NEW ENGLAND: MARK SPACKMAN
     MIE UNIVERSITY: HIROAKI UMEDA
     NAT. INST. OF ADVANCED INDUSTRIAL SCIENCE AND TECHNOLOGY: KAZUO KITAURA
     MICHIGAN STATE UNIVERSITY:
          KAROL KOWALSKI, MARTA WLOCH, JEFFREY GOUR, JESSE LUTZ,
          WEI LI, PIOTR PIECUCH
     UNIVERSITY OF SILESIA: MONIKA MUSIAL, STANISLAW KUCHARSKI
     FACULTES UNIVERSITAIRES NOTRE-DAME DE LA PAIX:
          OLIVIER QUINET, BENOIT CHAMPAGNE
     UNIVERSITY OF CALIFORNIA - SANTA BARBARA: BERNARD KIRTMAN
     INSTITUTE FOR MOLECULAR SCIENCE:
          KAZUYA ISHIMURA, MICHIO KATOUDA, AND SHIGERU NAGASE
     UNIVERSITY OF NOTRE DAME: ANNA POMOGAEVA, DAN CHIPMAN
     KYUSHU UNIVERSITY:
          HARUYUKI NAKANO,
          FENG LONG GU, JACEK KORCHOWIEC, MARCIN MAKOWSKI, AND YURIKO AOKI,
          HIROTOSHI MORI AND EISAKU MIYOSHI
     PENNSYLVANIA STATE UNIVERSITY:
          TZVETELIN IORDANOV, CHET SWALINA, JONATHAN SKONE,
          SHARON HAMMES-SCHIFFER
     WASEDA UNIVERSITY:
          MASATO KOBAYASHI, TOMOKO AKAMA, TSUGUKI TOUMA,
          TAKESHI YOSHIKAWA, YASUHIRO IKABATA, JUNJI SEINO,
          YUYA NAKAJIMA, HIROMI NAKAI
     NANJING UNIVERSITY: SHUHUA LI
     UNIVERSITY OF NEBRASKA:
          PEIFENG SU, DEJUN SI, NANDUN THELLAMUREGE, YALI WANG, HUI LI
     UNIVERSITY OF ZURICH: ROBERTO PEVERATI, KIM BALDRIDGE
     N. COPERNICUS UNIVERSITY AND JACKSON STATE UNIVERSITY:
          MARIA BARYSZ
     UNIVERSITY OF COPENHAGEN: Jimmy Kromann, CASPER STEINMANN
     TOKYO INSTITUTE OF TECHNOLOGY: HIROYA NAKATA
     NAGOYA UNIVERSITY: YOSHIO NISHIMOTO, STEPHAN IRLE
     MOSCOW STATE UNIVERSITY: VLADIMIR MIRONOV


 PARALLEL VERSION RUNNING ON        4 PROCESSORS IN        1 NODES.

 EXECUTION OF GAMESS BEGUN Thu Aug 10 21:38:29 2017

            ECHO OF THE FIRST FEW INPUT CARDS -
 INPUT CARD> $CONTRL COORD=PRINAXIS SCFTYP=RHF DFTTYP=B3LYP TDDFT=EXCITE                    
 INPUT CARD>         AIMPAC=.t. $END                                                        
 INPUT CARD> $SYSTEM TIMLIM=3000 MWORDS=50 $END                                             
 INPUT CARD> $BASIS  GBASIS=N21 ngauss=3 NDFUNC=1 $END                                      
 INPUT CARD> $TDDFT  NSTATE=10 $END                                                         
 INPUT CARD> $DATA                                                                          
 INPUT CARD>divinylbenzene                                                                  
 INPUT CARD>C1                                                                              
 INPUT CARD> C           6.0  -1.4152533224   0.2302217854   0.0000000000                   
 INPUT CARD> C           6.0   1.4152533224  -0.2302217854   0.0000000000                   
 INPUT CARD> C           6.0  -0.4951331558   1.3144608674   0.0000000000                   
 INPUT CARD> C           6.0   0.4951331558  -1.3144608674   0.0000000000                   
 INPUT CARD> C           6.0   0.8894090436   1.0909493743   0.0000000000                   
 INPUT CARD> C           6.0  -0.8894090436  -1.0909493743   0.0000000000                   
 INPUT CARD> H           1.0  -0.8795511985   2.3437343748   0.0000000000                   
 INPUT CARD> H           1.0   0.8795511985  -2.3437343748   0.0000000000                   
 INPUT CARD> H           1.0   1.5779041557   1.9450061275   0.0000000000                   
 INPUT CARD> H           1.0  -1.5779041557  -1.9450061275   0.0000000000                   
 INPUT CARD> C           6.0   2.8845844962  -0.5210893778   0.0000000000                   
 INPUT CARD> C           6.0  -2.8845844962   0.5210893778   0.0000000000                   
 INPUT CARD> H           1.0   3.1403356810  -1.5919605685   0.0000000000                   
 INPUT CARD> H           1.0  -3.1403356810   1.5919605685   0.0000000000                   
 INPUT CARD> C           6.0   3.8800428103   0.3822535424   0.0000000000                   
 INPUT CARD> C           6.0  -3.8800428103  -0.3822535424   0.0000000000                   
 INPUT CARD> H           1.0   3.6946765858   1.4624389570   0.0000000000                   
 INPUT CARD> H           1.0  -3.6946765858  -1.4624389570   0.0000000000                   
 INPUT CARD> H           1.0   4.9316453546   0.0711049543   0.0000000000                   
 INPUT CARD> H           1.0  -4.9316453546  -0.0711049543   0.0000000000                   
 INPUT CARD> $END                                                                           
 INPUT CARD>                                                                                
   50000000 WORDS OF MEMORY AVAILABLE

     BASIS OPTIONS
     -------------
     GBASIS=N21          IGAUSS=       3      POLAR=COMMON  
     NDFUNC=       1     NFFUNC=       0     DIFFSP=       F
     NPFUNC=       0      DIFFS=       F     BASNAM=        


     RUN TITLE
     ---------
 divinylbenzene                                                                  

 THE POINT GROUP OF THE MOLECULE IS C1      
 THE ORDER OF THE PRINCIPAL AXIS IS     0

 THE MOMENTS OF INERTIA ARE (AMU-ANGSTROM**2)
 IXX=   109.440   IYY=   736.960   IZZ=   846.400

 ATOM      ATOMIC                      COORDINATES (BOHR)
           CHARGE         X                   Y                   Z
 C           6.0    -2.6723873767        0.4474975755        0.0000000000
 C           6.0     2.6723873767       -0.4474975755        0.0000000000
 C           6.0    -0.9240960654        2.4882983238        0.0000000000
 C           6.0     0.9240960654       -2.4882983238        0.0000000000
 C           6.0     1.6903153450        2.0537513083        0.0000000000
 C           6.0    -1.6903153450       -2.0537513083        0.0000000000
 H           1.0    -1.6414811999        4.4367028535        0.0000000000
 H           1.0     1.6414811999       -4.4367028535        0.0000000000
 H           1.0     2.9988792133        3.6616122240        0.0000000000
 H           1.0    -2.9988792133       -3.6616122240        0.0000000000
 C           6.0     5.4464326291       -1.0100734457        0.0000000000
 C           6.0    -5.4464326291        1.0100734457        0.0000000000
 H           1.0     5.9203094679       -3.0359538093        0.0000000000
 H           1.0    -5.9203094679        3.0359538093        0.0000000000
 C           6.0     7.3354999945        0.6882242783        0.0000000000
 C           6.0    -7.3354999945       -0.6882242783        0.0000000000
 H           1.0     6.9947119163        2.7310867941        0.0000000000
 H           1.0    -6.9947119163       -2.7310867941        0.0000000000
 H           1.0     9.3199827904        0.0909969393        0.0000000000
 H           1.0    -9.3199827904       -0.0909969393        0.0000000000

          INTERNUCLEAR DISTANCES (ANGS.)
          ------------------------------

                1 C          2 C          3 C          4 C          5 C     

   1 C       0.0000000    2.8677127 *  1.4220392 *  2.4567501 *  2.4601465 *
   2 C       2.8677127 *  0.0000000    2.4567501 *  1.4220392 *  1.4219724 *
   3 C       1.4220392 *  2.4567501 *  0.0000000    2.8092449 *  1.4024673 *
   4 C       2.4567501 *  1.4220392 *  2.8092449 *  0.0000000    2.4375094 *
   5 C       2.4601465 *  1.4219724 *  1.4024673 *  2.4375094 *  0.0000000  
   6 C       1.4219724 *  2.4601465 *  2.4375094 *  1.4024673 *  2.8151156 *
   7 H       2.1803468 *  3.4483878    1.0987180 *  3.9079598    2.1676463 *
   8 H       3.4483878    2.1803468 *  3.9079598    1.0987180 *  3.4346979  
   9 H       3.4495619    2.1813005 *  2.1668113 *  3.4346060    1.0970134 *
  10 H       2.1813005 *  3.4495619    3.4346060    2.1668113 *  3.9121171  
  11 C       4.3649827    1.4978445 *  3.8460026    2.5177204 *  2.5650329 *
  12 C       1.4978445 *  4.3649827    2.5177204 *  3.8460026    3.8167745  
  13 H       4.9064997    2.1977811 *  4.6544515    2.6597185 *  3.5020960  
  14 H       2.1977811 *  4.9064997    2.6597185 *  4.6544515    4.0607702  
  15 C       5.2974782    2.5397467 *  4.4733852    3.7863509    3.0734574  
  16 C       2.5397467 *  5.2974782    3.7863509    4.4733852    4.9917930  
  17 H       5.2564002    2.8391673 *  4.1924221    4.2365376    2.8297580 *
  18 H       2.8391673 *  5.2564002    4.2365376    4.1924221    5.2472500  
  19 H       6.3488929    3.5292791    5.5673925    4.6478418    4.1689036  
  20 H       3.5292791    6.3488929    4.6478418    5.5673925    5.9359114  

                6 C          7 H          8 H          9 H         10 H     

   1 C       1.4219724 *  2.1803468 *  3.4483878    3.4495619    2.1813005 *
   2 C       2.4601465 *  3.4483878    2.1803468 *  2.1813005 *  3.4495619  
   3 C       2.4375094 *  1.0987180 *  3.9079598    2.1668113 *  3.4346060  
   4 C       1.4024673 *  3.9079598    1.0987180 *  3.4346060    2.1668113 *
   5 C       2.8151156 *  2.1676463 *  3.4346979    1.0970134 *  3.9121171  
   6 C       0.0000000    3.4346979    2.1676463 *  3.9121171    1.0970134 *
   7 H       3.4346979    0.0000000    5.0066760    2.4895925 *  4.3452263  
   8 H       2.1676463 *  5.0066760    0.0000000    4.3452263    2.4895925 *
   9 H       3.9121171    2.4895925 *  4.3452263    0.0000000    5.0091238  
  10 H       1.0970134 *  4.3452263    2.4895925 *  5.0091238    0.0000000  
  11 C       3.8167745    4.7303206    2.7096482 *  2.7908853 *  4.6841588  
  12 C       2.5650329 *  2.7096482 *  4.7303206    4.6841588    2.7908853 *
  13 H       4.0607702    5.6257609    2.3825009 *  3.8666944    4.7314298  
  14 H       3.5020960    2.3825009 *  5.6257609    4.7314298    3.8666944  
  15 C       4.9917930    5.1479260    4.0538821    2.7824518 *  5.9334073  
  16 C       3.0734574    4.0538821    5.1479260    5.9334073    2.7824518 *
  17 H       5.2472500    4.6583518    4.7341194    2.1710819 *  6.2778013  
  18 H       2.8297580 *  4.7341194    4.6583518    6.2778013    2.1710819 *
  19 H       5.9359114    6.2397796    4.7170877    3.8417555    6.8146121  
  20 H       4.1689036    4.7170877    6.2397796    6.8146121    3.8417555  

               11 C         12 C         13 H         14 H         15 C     

   1 C       4.3649827    1.4978445 *  4.9064997    2.1977811 *  5.2974782  
   2 C       1.4978445 *  4.3649827    2.1977811 *  4.9064997    2.5397467 *
   3 C       3.8460026    2.5177204 *  4.6544515    2.6597185 *  4.4733852  
   4 C       2.5177204 *  3.8460026    2.6597185 *  4.6544515    3.7863509  
   5 C       2.5650329 *  3.8167745    3.5020960    4.0607702    3.0734574  
   6 C       3.8167745    2.5650329 *  4.0607702    3.5020960    4.9917930  
   7 H       4.7303206    2.7096482 *  5.6257609    2.3825009 *  5.1479260  
   8 H       2.7096482 *  4.7303206    2.3825009 *  5.6257609    4.0538821  
   9 H       2.7908853 *  4.6841588    3.8666944    4.7314298    2.7824518 *
  10 H       4.6841588    2.7908853 *  4.7314298    3.8666944    5.9334073  
  11 C       0.0000000    5.8625462    1.1009876 *  6.3847195    1.3442342 *
  12 C       5.8625462    0.0000000    6.3847195    1.1009876 *  6.7660519  
  13 H       1.1009876 *  6.3847195    0.0000000    7.0416040    2.1082429 *
  14 H       6.3847195    1.1009876 *  7.0416040    0.0000000    7.1238406  
  15 C       1.3442342 *  6.7660519    2.1082429 *  7.1238406    0.0000000  
  16 C       6.7660519    1.3442342 *  7.1238406    2.1082429 *  7.7976535  
  17 H       2.1425765 *  6.6462633    3.1042955    6.8362394    1.0959750 *
  18 H       6.6462633    2.1425765 *  6.8362394    3.1042955    7.7961057  
  19 H       2.1309980 *  7.8291721    2.4442948 *  8.2140051    1.0966683 *
  20 H       7.8291721    2.1309980 *  8.2140051    2.4442948 *  8.8233430  

               16 C         17 H         18 H         19 H         20 H     

   1 C       2.5397467 *  5.2564002    2.8391673 *  6.3488929    3.5292791  
   2 C       5.2974782    2.8391673 *  5.2564002    3.5292791    6.3488929  
   3 C       3.7863509    4.1924221    4.2365376    5.5673925    4.6478418  
   4 C       4.4733852    4.2365376    4.1924221    4.6478418    5.5673925  
   5 C       4.9917930    2.8297580 *  5.2472500    4.1689036    5.9359114  
   6 C       3.0734574    5.2472500    2.8297580 *  5.9359114    4.1689036  
   7 H       4.0538821    4.6583518    4.7341194    6.2397796    4.7170877  
   8 H       5.1479260    4.7341194    4.6583518    4.7170877    6.2397796  
   9 H       5.9334073    2.1710819 *  6.2778013    3.8417555    6.8146121  
  10 H       2.7824518 *  6.2778013    2.1710819 *  6.8146121    3.8417555  
  11 C       6.7660519    2.1425765 *  6.6462633    2.1309980 *  7.8291721  
  12 C       1.3442342 *  6.6462633    2.1425765 *  7.8291721    2.1309980 *
  13 H       7.1238406    3.1042955    6.8362394    2.4442948 *  8.2140051  
  14 H       2.1082429 *  6.8362394    3.1042955    8.2140051    2.4442948 *
  15 C       7.7976535    1.0959750 *  7.7961057    1.0966683 *  8.8233430  
  16 C       0.0000000    7.7961057    1.0959750 *  8.8233430    1.0966683 *
  17 H       7.7961057    0.0000000    7.9471662    1.8616933 *  8.7615745  
  18 H       1.0959750 *  7.9471662    0.0000000    8.7615745    1.8616933 *
  19 H       8.8233430    1.8616933 *  8.7615745    0.0000000    9.8643159  
  20 H       1.0966683 *  8.7615745    1.8616933 *  9.8643159    0.0000000  

  * ... LESS THAN  3.000


     ATOMIC BASIS SET
     ----------------
 THE CONTRACTED PRIMITIVE FUNCTIONS HAVE BEEN UNNORMALIZED
 THE CONTRACTED BASIS FUNCTIONS ARE NOW NORMALIZED TO UNITY

  SHELL TYPE  PRIMITIVE        EXPONENT          CONTRACTION COEFFICIENT(S)

 C         

      1   S       1           172.2560000    0.061766907377
      1   S       2            25.9109000    0.358794042852
      1   S       3             5.5333500    0.700713083689

      2   L       4             3.6649800   -0.395895162119    0.236459946619
      2   L       5             0.7705450    1.215834355681    0.860618805716

      3   L       6             0.1958570    1.000000000000    1.000000000000

 C         

      4   S       7           172.2560000    0.061766907377
      4   S       8            25.9109000    0.358794042852
      4   S       9             5.5333500    0.700713083689

      5   L      10             3.6649800   -0.395895162119    0.236459946619
      5   L      11             0.7705450    1.215834355681    0.860618805716

      6   L      12             0.1958570    1.000000000000    1.000000000000

 C         

      7   S      13           172.2560000    0.061766907377
      7   S      14            25.9109000    0.358794042852
      7   S      15             5.5333500    0.700713083689

      8   L      16             3.6649800   -0.395895162119    0.236459946619
      8   L      17             0.7705450    1.215834355681    0.860618805716

      9   L      18             0.1958570    1.000000000000    1.000000000000

 C         

     10   S      19           172.2560000    0.061766907377
     10   S      20            25.9109000    0.358794042852
     10   S      21             5.5333500    0.700713083689

     11   L      22             3.6649800   -0.395895162119    0.236459946619
     11   L      23             0.7705450    1.215834355681    0.860618805716

     12   L      24             0.1958570    1.000000000000    1.000000000000

 C         

     13   S      25           172.2560000    0.061766907377
     13   S      26            25.9109000    0.358794042852
     13   S      27             5.5333500    0.700713083689

     14   L      28             3.6649800   -0.395895162119    0.236459946619
     14   L      29             0.7705450    1.215834355681    0.860618805716

     15   L      30             0.1958570    1.000000000000    1.000000000000

 C         

     16   S      31           172.2560000    0.061766907377
     16   S      32            25.9109000    0.358794042852
     16   S      33             5.5333500    0.700713083689

     17   L      34             3.6649800   -0.395895162119    0.236459946619
     17   L      35             0.7705450    1.215834355681    0.860618805716

     18   L      36             0.1958570    1.000000000000    1.000000000000

 H         

     19   S      37             5.4471780    0.156284978695
     19   S      38             0.8245472    0.904690876670

     20   S      39             0.1831916    1.000000000000

 H         

     21   S      40             5.4471780    0.156284978695
     21   S      41             0.8245472    0.904690876670

     22   S      42             0.1831916    1.000000000000

 H         

     23   S      43             5.4471780    0.156284978695
     23   S      44             0.8245472    0.904690876670

     24   S      45             0.1831916    1.000000000000

 H         

     25   S      46             5.4471780    0.156284978695
     25   S      47             0.8245472    0.904690876670

     26   S      48             0.1831916    1.000000000000

 C         

     27   S      49           172.2560000    0.061766907377
     27   S      50            25.9109000    0.358794042852
     27   S      51             5.5333500    0.700713083689

     28   L      52             3.6649800   -0.395895162119    0.236459946619
     28   L      53             0.7705450    1.215834355681    0.860618805716

     29   L      54             0.1958570    1.000000000000    1.000000000000

 C         

     30   S      55           172.2560000    0.061766907377
     30   S      56            25.9109000    0.358794042852
     30   S      57             5.5333500    0.700713083689

     31   L      58             3.6649800   -0.395895162119    0.236459946619
     31   L      59             0.7705450    1.215834355681    0.860618805716

     32   L      60             0.1958570    1.000000000000    1.000000000000

 H         

     33   S      61             5.4471780    0.156284978695
     33   S      62             0.8245472    0.904690876670

     34   S      63             0.1831916    1.000000000000

 H         

     35   S      64             5.4471780    0.156284978695
     35   S      65             0.8245472    0.904690876670

     36   S      66             0.1831916    1.000000000000

 C         

     37   S      67           172.2560000    0.061766907377
     37   S      68            25.9109000    0.358794042852
     37   S      69             5.5333500    0.700713083689

     38   L      70             3.6649800   -0.395895162119    0.236459946619
     38   L      71             0.7705450    1.215834355681    0.860618805716

     39   L      72             0.1958570    1.000000000000    1.000000000000

 C         

     40   S      73           172.2560000    0.061766907377
     40   S      74            25.9109000    0.358794042852
     40   S      75             5.5333500    0.700713083689

     41   L      76             3.6649800   -0.395895162119    0.236459946619
     41   L      77             0.7705450    1.215834355681    0.860618805716

     42   L      78             0.1958570    1.000000000000    1.000000000000

 H         

     43   S      79             5.4471780    0.156284978695
     43   S      80             0.8245472    0.904690876670

     44   S      81             0.1831916    1.000000000000

 H         

     45   S      82             5.4471780    0.156284978695
     45   S      83             0.8245472    0.904690876670

     46   S      84             0.1831916    1.000000000000

 H         

     47   S      85             5.4471780    0.156284978695
     47   S      86             0.8245472    0.904690876670

     48   S      87             0.1831916    1.000000000000

 H         

     49   S      88             5.4471780    0.156284978695
     49   S      89             0.8245472    0.904690876670

     50   S      90             0.1831916    1.000000000000

 TOTAL NUMBER OF BASIS SET SHELLS             =   50
 NUMBER OF CARTESIAN GAUSSIAN BASIS FUNCTIONS =  110
 NUMBER OF ELECTRONS                          =   70
 CHARGE OF MOLECULE                           =    0
 SPIN MULTIPLICITY                            =    1
 NUMBER OF OCCUPIED ORBITALS (ALPHA)          =   35
 NUMBER OF OCCUPIED ORBITALS (BETA )          =   35
 TOTAL NUMBER OF ATOMS                        =   20
 THE NUCLEAR REPULSION ENERGY IS      445.9370123699

     LEBEDEV GRID-BASED DFT OPTIONS
     ------------------------------
     DFTTYP=B3LYP   
     NRAD  =      96     NLEB  =     302
     NRAD0 =      24     NLEB0 =     110
     SWOFF =    5.00E-03 (PURE SCF -> DFT)
     SWITCH=    3.00E-04 (COARSE -> TIGHT GRID)
     THRESH=    0.00E+00 GTHRE=    1.00E+00

 GRIMME'S EMPIRICAL DISPERSION CORRECTION= F

     $CONTRL OPTIONS
     ---------------
 SCFTYP=RHF          RUNTYP=ENERGY       EXETYP=RUN     
 MPLEVL=       0     CITYP =NONE         CCTYP =NONE         VBTYP =NONE    
 DFTTYP=B3LYP        TDDFT =EXCITE  
 MULT  =       1     ICHARG=       0     NZVAR =       0     COORD =PRINAXIS
 PP    =NONE         RELWFN=NONE         LOCAL =NONE         NUMGRD=       F
 ISPHER=      -1     NOSYM =       0     MAXIT =      30     UNITS =ANGS    
 PLTORB=       F     MOLPLT=       F     AIMPAC=       T     FRIEND=        
 NPRINT=       7     IREST =       0     GEOM  =INPUT   
 NORMF =       0     NORMP =       0     ITOL  =      20     ICUT  =       9
 INTTYP=BEST         GRDTYP=BEST         QMTTOL= 1.0E-06

     $SYSTEM OPTIONS
     ---------------
  REPLICATED MEMORY=    50000000 WORDS (ON EVERY NODE).
 DISTRIBUTED MEMDDI=           0 MILLION WORDS IN AGGREGATE,
 MEMDDI DISTRIBUTED OVER   4 PROCESSORS IS           0 WORDS/PROCESSOR.
 TOTAL MEMORY REQUESTED ON EACH PROCESSOR=    50000000 WORDS.
 TIMLIM=        3000.00 MINUTES, OR       2.1 DAYS.
 PARALL= T  BALTYP=  DLB     KDIAG=    0  COREFL= F
 MXSEQ2=     300 MXSEQ3=     150  mem10=         0

          ----------------
          PROPERTIES INPUT
          ----------------

     MOMENTS            FIELD           POTENTIAL          DENSITY
 IEMOM =       1   IEFLD =       0   IEPOT =       0   IEDEN =       0
 WHERE =COMASS     WHERE =NUCLEI     WHERE =NUCLEI     WHERE =NUCLEI  
 OUTPUT=BOTH       OUTPUT=BOTH       OUTPUT=BOTH       OUTPUT=BOTH    
 IEMINT=       0   IEFINT=       0                     IEDINT=       0
                                                       MORB  =       0
          EXTRAPOLATION IN EFFECT
          DIIS IN EFFECT
 ORBITAL PRINTING OPTION: NPREO=     1   110     2     1

     -------------------------------
     INTEGRAL TRANSFORMATION OPTIONS
     -------------------------------
     NWORD  =            0
     CUTOFF = 1.0E-09     MPTRAN =       0
     DIRTRF =       F     AOINTS =DUP     

          ----------------------
          INTEGRAL INPUT OPTIONS
          ----------------------
 NOPK  =       1 NORDER=       0 SCHWRZ=       T

          ----------------------
          TDDFT INPUT PARAMETERS
          ----------------------
 NSTATE=      10  IROOT=       1   MULT=       1
 MAXVEC=      50 NTRIAL=       5 CNVTOL=  1.00E-07
 TDPRP =       F  TAMMD=       F    TPA=       F
 ALPHA =       F   BETA=       F  PFREQ=    0.00    0.00
   NRAD=      48   NLEB=     110

     ------------------------------------------
     THE POINT GROUP IS C1 , NAXIS= 0, ORDER= 1
     ------------------------------------------

     DIMENSIONS OF THE SYMMETRY SUBSPACES ARE
 A   =  110

 ..... DONE SETTING UP THE RUN .....
 CPU     0: STEP CPU TIME=     0.02 TOTAL CPU TIME=        0.0 (    0.0 MIN)
 TOTAL WALL CLOCK TIME=        0.1 SECONDS, CPU UTILIZATION IS  33.33%

          ********************
          1 ELECTRON INTEGRALS
          ********************
 ...... END OF ONE-ELECTRON INTEGRALS ......
 CPU     0: STEP CPU TIME=     0.01 TOTAL CPU TIME=        0.0 (    0.0 MIN)
 TOTAL WALL CLOCK TIME=        0.1 SECONDS, CPU UTILIZATION IS  37.50%

          -------------
          GUESS OPTIONS
          -------------
          GUESS =HUCKEL            NORB  =       0          NORDER=       0
          MIX   =       F          PRTMO =       F          PUNMO =       F
          TOLZ  = 1.0E-08          TOLE  = 1.0E-05
          SYMDEN=       F          PURIFY=       F

 INITIAL GUESS ORBITALS GENERATED BY HUCKEL   ROUTINE.
 HUCKEL GUESS REQUIRES    117020 WORDS.

 SYMMETRIES FOR INITIAL GUESS ORBITALS FOLLOW.   BOTH SET(S).
    35 ORBITALS ARE OCCUPIED (   10 CORE ORBITALS).
    11=A       12=A       13=A       14=A       15=A       16=A       17=A   
    18=A       19=A       20=A       21=A       22=A       23=A       24=A   
    25=A       26=A       27=A       28=A       29=A       30=A       31=A   
    32=A       33=A       34=A       35=A       36=A       37=A       38=A   
    39=A       40=A       41=A       42=A       43=A       44=A       45=A   
 ...... END OF INITIAL ORBITAL SELECTION ......
 CPU     0: STEP CPU TIME=     0.04 TOTAL CPU TIME=        0.1 (    0.0 MIN)
 TOTAL WALL CLOCK TIME=        0.1 SECONDS, CPU UTILIZATION IS  58.33%

                    ----------------------
                    AO INTEGRAL TECHNOLOGY
                    ----------------------
     S,P,L SHELL ROTATED AXIS INTEGRALS, REPROGRAMMED BY
        KAZUYA ISHIMURA (IMS) AND JOSE SIERRA (SYNSTAR).
     S,P,D,L SHELL ROTATED AXIS INTEGRALS PROGRAMMED BY
        KAZUYA ISHIMURA (INSTITUTE FOR MOLECULAR SCIENCE).
     S,P,D,F,G SHELL TO TOTAL QUARTET ANGULAR MOMENTUM SUM 5,
        ERIC PROGRAM BY GRAHAM FLETCHER (ELORET AND NASA ADVANCED
        SUPERCOMPUTING DIVISION, AMES RESEARCH CENTER).
     S,P,D,F,G,L SHELL GENERAL RYS QUADRATURE PROGRAMMED BY
        MICHEL DUPUIS (PACIFIC NORTHWEST NATIONAL LABORATORY).

          --------------------
          2 ELECTRON INTEGRALS
          --------------------

 THE -PK- OPTION IS OFF, THE INTEGRALS ARE NOT IN SUPERMATRIX FORM.
 STORING   15000 INTEGRALS/RECORD ON DISK, USING 12 BYTES/INTEGRAL.
 TWO ELECTRON INTEGRAL EVALUATION REQUIRES   90631 WORDS OF MEMORY.
 SCHWARZ INEQUALITY OVERHEAD:      5679 INTEGRALS, T=        0.00
 II,JST,KST,LST =  1  1  1  1 NREC =         1 INTLOC =    1
 II,JST,KST,LST =  2  1  1  1 NREC =         1 INTLOC =    1
 II,JST,KST,LST =  3  1  1  1 NREC =         1 INTLOC =    1
 II,JST,KST,LST =  4  1  1  1 NREC =         1 INTLOC =    1
 II,JST,KST,LST =  5  1  1  1 NREC =         1 INTLOC =   46
 II,JST,KST,LST =  6  1  1  1 NREC =         1 INTLOC =  250
 II,JST,KST,LST =  7  1  1  1 NREC =         1 INTLOC = 2363
 II,JST,KST,LST =  8  1  1  1 NREC =         1 INTLOC = 2564
 II,JST,KST,LST =  9  1  1  1 NREC =         1 INTLOC = 6112
 II,JST,KST,LST = 10  1  1  1 NREC =         1 INTLOC = 9271
 II,JST,KST,LST = 11  1  1  1 NREC =         1 INTLOC =11775
 II,JST,KST,LST = 12  1  1  1 NREC =         2 INTLOC = 5665
 II,JST,KST,LST = 13  1  1  1 NREC =         2 INTLOC =14986
 II,JST,KST,LST = 14  1  1  1 NREC =         3 INTLOC = 5575
 II,JST,KST,LST = 15  1  1  1 NREC =         4 INTLOC =10845
 II,JST,KST,LST = 16  1  1  1 NREC =         5 INTLOC = 7308
 II,JST,KST,LST = 17  1  1  1 NREC =         6 INTLOC =  675
 II,JST,KST,LST = 18  1  1  1 NREC =         8 INTLOC =  587
 II,JST,KST,LST = 19  1  1  1 NREC =        10 INTLOC =13731
 II,JST,KST,LST = 20  1  1  1 NREC =        11 INTLOC =11740
 II,JST,KST,LST = 21  1  1  1 NREC =        12 INTLOC = 8285
 II,JST,KST,LST = 22  1  1  1 NREC =        13 INTLOC = 6078
 II,JST,KST,LST = 23  1  1  1 NREC =        14 INTLOC = 7794
 II,JST,KST,LST = 24  1  1  1 NREC =        15 INTLOC = 8506
 II,JST,KST,LST = 25  1  1  1 NREC =        16 INTLOC = 8733
 II,JST,KST,LST = 26  1  1  1 NREC =        17 INTLOC = 1400
 II,JST,KST,LST = 27  1  1  1 NREC =        18 INTLOC =10878
 II,JST,KST,LST = 28  1  1  1 NREC =        19 INTLOC = 5772
 II,JST,KST,LST = 29  1  1  1 NREC =        22 INTLOC =10259
 II,JST,KST,LST = 30  1  1  1 NREC =        29 INTLOC = 6899
 II,JST,KST,LST = 31  1  1  1 NREC =        29 INTLOC =13102
 II,JST,KST,LST = 32  1  1  1 NREC =        34 INTLOC = 2904
 II,JST,KST,LST = 33  1  1  1 NREC =        42 INTLOC =14479
 II,JST,KST,LST = 34  1  1  1 NREC =        43 INTLOC =10263
 II,JST,KST,LST = 35  1  1  1 NREC =        46 INTLOC = 9466
 II,JST,KST,LST = 36  1  1  1 NREC =        47 INTLOC =10782
 II,JST,KST,LST = 37  1  1  1 NREC =        50 INTLOC =12460
 II,JST,KST,LST = 38  1  1  1 NREC =        52 INTLOC = 1490
 II,JST,KST,LST = 39  1  1  1 NREC =        58 INTLOC =11494
 II,JST,KST,LST = 40  1  1  1 NREC =        68 INTLOC =14744
 II,JST,KST,LST = 41  1  1  1 NREC =        69 INTLOC = 7514
 II,JST,KST,LST = 42  1  1  1 NREC =        75 INTLOC = 3878
 II,JST,KST,LST = 43  1  1  1 NREC =        87 INTLOC =10949
 II,JST,KST,LST = 44  1  1  1 NREC =        89 INTLOC =10531
 II,JST,KST,LST = 45  1  1  1 NREC =        93 INTLOC = 5149
 II,JST,KST,LST = 46  1  1  1 NREC =        95 INTLOC = 5262
 II,JST,KST,LST = 47  1  1  1 NREC =        99 INTLOC = 3273
 II,JST,KST,LST = 48  1  1  1 NREC =       100 INTLOC = 5247
 II,JST,KST,LST = 49  1  1  1 NREC =       103 INTLOC = 4692
 II,JST,KST,LST = 50  1  1  1 NREC =       105 INTLOC = 7804
 SCHWARZ INEQUALITY TEST SKIPPED      449383 INTEGRAL BLOCKS.
 TOTAL NUMBER OF NONZERO TWO-ELECTRON INTEGRALS =             5742432
        385 INTEGRAL RECORDS WERE STORED ON DISK FILE  8.
  ...... END OF TWO-ELECTRON INTEGRALS .....
 CPU     0: STEP CPU TIME=     0.31 TOTAL CPU TIME=        0.4 (    0.0 MIN)
 TOTAL WALL CLOCK TIME=        0.4 SECONDS, CPU UTILIZATION IS  84.44%

          --------------------------
             R-B3LYP SCF CALCULATION
          --------------------------

     NUCLEAR ENERGY =       445.9370123699
     MAXIT =   30     NPUNCH=    2
     EXTRAP=T  DAMP=F  SHIFT=F  RSTRCT=F  DIIS=T  DEM=F  SOSCF=F
         DENSITY MATRIX CONVERGENCE THRESHOLD=  1.00E-06
     COARSE -> FINE DFT GRID SWITCH THRESHOLD=  3.00E-04 (SWITCH IN $DFT)
                   HF -> DFT SWITCH THRESHOLD=  5.00E-03 (SWOFF IN $DFT)
     MEMORY REQUIRED FOR RHF ITERS=    773717 WORDS.

 DFT CODE IS SWITCHING FROM THE FINE GRID NRAD= 96,  NLEB=  302
                      TO THE COARSE GRID NRAD0= 24, NLEB0=  110

     EXCHANGE FUNCTIONAL   =B88&HFX   
     CORRELATION FUNCTIONAL=LYP88&VWN5
     DFT THRESHOLD         =.690E-08
     GRID CHANGE THRESHOLD =.300E-03
 FOR AN EULER-MACLAURIN QUADRATURE USING  96 RADIAL POINTS:
 SMALLEST GAUSSIAN PRIMITIVE EXPONENT=        0.1831915800 OF TYPE -S-
 ON ATOM NUMBER   7 HAS RADIAL NORMALIZATION=  1.000000
  LARGEST GAUSSIAN PRIMITIVE EXPONENT=      172.2560000000 OF TYPE -S-
 ON ATOM NUMBER   1 HAS RADIAL NORMALIZATION=  1.000000
 DFT IS SWITCHED OFF, PERFORMING PURE SCF UNTIL SWOFF THRESHOLD IS REACHED.

 ITER EX DEM     TOTAL ENERGY        E CHANGE  DENSITY CHANGE    DIIS ERROR
   1  0  0     -381.6188642018  -381.6188642018   0.291260834   0.528791207
          * * *   INITIATING DIIS PROCEDURE   * * *
   2  1  0     -382.2883171371    -0.6694529353   0.081273233   0.083334265
   3  2  0     -382.3116035112    -0.0232863741   0.034489589   0.015357347
   4  3  0     -382.3139441502    -0.0023406390   0.009903722   0.008073712
   5  4  0     -382.3143963112    -0.0004521610   0.002482520   0.001795907
 CONVERGED TO SWOFF, SO DFT CALCULATION IS NOW SWITCHED ON.
          * * *   INITIATING DIIS PROCEDURE   * * *
   6  5  0     -384.6293211956    -2.3149248843   0.104790203   0.097609756
   7  6  0     -384.6609255026    -0.0316043070   0.029135763   0.027146560
   8  7  0     -384.6644463083    -0.0035208057   0.016089786   0.018016208
   9  8  0     -384.6669290507    -0.0024827423   0.004329811   0.006137973
  10  9  0     -384.6670850654    -0.0001560147   0.000756094   0.000962935
  11 10  0     -384.6670890618    -0.0000039964   0.000239640   0.000202216
 DFT CODE IS SWITCHING BACK TO THE FINE GRID
          * * *   INITIATING DIIS PROCEDURE   * * *
  12 11  0     -384.6644276155     0.0026614463   0.001271368   0.001877485
  13 12  0     -384.6644421514    -0.0000145359   0.000427771   0.000153667
  14 13  0     -384.6644420546     0.0000000968   0.000302263   0.000251537
  15 14  0     -384.6644423978    -0.0000003432   0.000052048   0.000067214
  16 15  0     -384.6644424122    -0.0000000144   0.000018441   0.000026653
  17 16  0     -384.6644424154    -0.0000000032   0.000003842   0.000002579
  18 17  0     -384.6644424154    -0.0000000000   0.000002141   0.000001308
  19 18  0     -384.6644424154    -0.0000000000   0.000000136   0.000000120
  20 19  0     -384.6644424154    -0.0000000000   0.000000061   0.000000038

          -----------------
          DENSITY CONVERGED
          -----------------
     TIME TO FORM FOCK OPERATORS=      33.8 SECONDS (       1.7 SEC/ITER)
     TIME TO SOLVE SCF EQUATIONS=       0.4 SECONDS (       0.0 SEC/ITER)

 FINAL R-B3LYP ENERGY IS     -384.6644424154 AFTER  20 ITERATIONS
 DFT EXCHANGE + CORRELATION ENERGY =       -46.3724618374
 TOTAL ELECTRON NUMBER             =        69.9992198798

          ------------
          EIGENVECTORS
          ------------

                      1          2          3          4          5
                  -10.1439   -10.1438   -10.1346   -10.1346   -10.1334
                     A          A          A          A          A   
    1  C  1  S    0.696276   0.692289  -0.032871   0.033659   0.016486
    2  C  1  S    0.078951   0.077463  -0.001913   0.001947   0.000788
    3  C  1  X    0.000543   0.000142  -0.001392   0.001288  -0.000604
    4  C  1  Y   -0.000054   0.000018  -0.000231   0.000338  -0.001079
    5  C  1  Z   -0.000000  -0.000000  -0.000000  -0.000000   0.000000
    6  C  1  S   -0.085078  -0.069007  -0.010584   0.010005   0.004586
    7  C  1  X   -0.013545  -0.001449   0.016779  -0.017332   0.004852
    8  C  1  Y    0.002617   0.000676   0.003500  -0.007709   0.019500
    9  C  1  Z   -0.000000  -0.000000  -0.000000  -0.000000   0.000000
   10  C  2  S   -0.692813   0.695754   0.033816   0.032714   0.016528
   11  C  2  S   -0.078563   0.077856   0.001968   0.001893   0.000789
   12  C  2  X    0.000543  -0.000145  -0.001428  -0.001248   0.000604
   13  C  2  Y   -0.000054  -0.000018  -0.000240  -0.000331   0.001079
   14  C  2  Z   -0.000000  -0.000000  -0.000000  -0.000000   0.000000
   15  C  2  S    0.084733  -0.069432   0.010863   0.009701   0.004619
   16  C  2  X   -0.013538   0.001517   0.017264   0.016848  -0.004878
   17  C  2  Y    0.002613  -0.000690   0.003718   0.007607  -0.019498
   18  C  2  Z   -0.000000  -0.000000  -0.000000  -0.000000   0.000000
   19  C  3  S   -0.038641  -0.040877   0.041916  -0.079807   0.578519
   20  C  3  S   -0.007507  -0.007174   0.005101  -0.009993   0.065893
   21  C  3  X    0.001082   0.000180  -0.000396   0.000111   0.000852
   22  C  3  Y    0.001020   0.001153   0.000144   0.000317  -0.001260
   23  C  3  Z   -0.000000  -0.000000  -0.000000  -0.000000   0.000000
   24  C  3  S    0.033921   0.019557  -0.011045   0.013999  -0.067181
   25  C  3  X   -0.004207  -0.005356   0.000710  -0.002214  -0.006162
   26  C  3  Y   -0.020086  -0.007278   0.003035  -0.007020   0.016052
   27  C  3  Z   -0.000000  -0.000000  -0.000000  -0.000000   0.000000
   28  C  4  S    0.038439  -0.041071  -0.044159  -0.078583   0.578992
   29  C  4  S    0.007471  -0.007211  -0.005382  -0.009844   0.065948
   30  C  4  X    0.001081  -0.000185  -0.000399  -0.000099  -0.000853
   31  C  4  Y    0.001014  -0.001158   0.000135  -0.000321   0.001261
   32  C  4  Z   -0.000000  -0.000000  -0.000000  -0.000000   0.000000
   33  C  4  S   -0.033824   0.019726   0.011438   0.013680  -0.067251
   34  C  4  X   -0.004180   0.005377   0.000773   0.002193   0.006175
   35  C  4  Y   -0.020050   0.007378   0.003233   0.006931  -0.016075
   36  C  4  Z   -0.000000  -0.000000  -0.000000  -0.000000   0.000000
   37  C  5  S    0.035916  -0.037250  -0.032877  -0.020012  -0.384856
   38  C  5  S    0.007223  -0.006670  -0.003867  -0.002296  -0.045921
   39  C  5  X    0.000722   0.000127  -0.000614  -0.000334   0.001435
   40  C  5  Y   -0.001322   0.001183   0.000380   0.000285   0.001162
   41  C  5  Z   -0.000000  -0.000000  -0.000000  -0.000000   0.000000
   42  C  5  S   -0.034023   0.018470   0.003083  -0.003615   0.056177
   43  C  5  X    0.002417   0.003935  -0.002970  -0.002481  -0.012006
   44  C  5  Y    0.020665  -0.009492  -0.000904   0.001720  -0.011932
   45  C  5  Z   -0.000000  -0.000000  -0.000000  -0.000000   0.000000
   46  C  6  S   -0.036100  -0.037069   0.032295  -0.020940  -0.385111
   47  C  6  S   -0.007256  -0.006634   0.003801  -0.002406  -0.045952
   48  C  6  X    0.000721  -0.000131  -0.000604   0.000352  -0.001436
   49  C  6  Y   -0.001328  -0.001176   0.000372  -0.000295  -0.001162
   50  C  6  Z   -0.000000  -0.000000  -0.000000  -0.000000   0.000000
   51  C  6  S    0.034115   0.018299  -0.003184  -0.003526   0.056234
   52  C  6  X    0.002397  -0.003947  -0.002898   0.002565   0.012028
   53  C  6  Y    0.020712   0.009388  -0.000953  -0.001694   0.011947
   54  C  6  Z   -0.000000  -0.000000  -0.000000  -0.000000   0.000000
   55  H  7  S    0.000192  -0.000665  -0.000027   0.000403  -0.001326
   56  H  7  S    0.002671   0.000412   0.000951   0.000042   0.003684
   57  H  8  S   -0.000195  -0.000664   0.000039   0.000402  -0.001328
   58  H  8  S   -0.002669   0.000425  -0.000950   0.000069   0.003684
   59  H  9  S   -0.000077  -0.000777   0.000374   0.000308   0.000787
   60  H  9  S   -0.003055   0.000865  -0.000116   0.000214  -0.001265
   61  H 10  S    0.000074  -0.000777  -0.000365   0.000319   0.000788
   62  H 10  S    0.003059   0.000850   0.000122   0.000211  -0.001263
   63  C 11  S    0.037666  -0.039590   0.703396   0.681044   0.053685
   64  C 11  S    0.006070  -0.006485   0.077688   0.075201   0.005314
   65  C 11  X   -0.000742   0.000691   0.000056   0.000107  -0.000012
   66  C 11  Y    0.000347  -0.000356   0.000809   0.000858  -0.000145
   67  C 11  Z   -0.000000  -0.000000  -0.000000  -0.000000   0.000000
   68  C 11  S   -0.014189   0.018298  -0.066665  -0.064417  -0.002536
   69  C 11  X    0.006795  -0.009174   0.002157   0.000996   0.002019
   70  C 11  Y   -0.003210   0.003908  -0.012104  -0.013112   0.005285
   71  C 11  Z   -0.000000  -0.000000  -0.000000  -0.000000   0.000000
   72  C 12  S   -0.037861  -0.039399  -0.683780   0.700735   0.053650
   73  C 12  S   -0.006102  -0.006454  -0.075522   0.077376   0.005311
   74  C 12  X   -0.000745  -0.000688   0.000053  -0.000108   0.000012
   75  C 12  Y    0.000349   0.000355   0.000784  -0.000880   0.000145
   76  C 12  Z   -0.000000  -0.000000  -0.000000  -0.000000   0.000000
   77  C 12  S    0.014281   0.018226   0.064810  -0.066283  -0.002542
   78  C 12  X    0.006840   0.009140   0.002128  -0.001057  -0.002023
   79  C 12  Y   -0.003230  -0.003892  -0.011727   0.013450  -0.005284
   80  C 12  Z   -0.000000  -0.000000  -0.000000  -0.000000   0.000000
   81  H 13  S    0.000342  -0.000374  -0.001532  -0.001613   0.000503
   82  H 13  S   -0.000144   0.000343   0.006786   0.006062   0.001914
   83  H 14  S   -0.000344  -0.000372   0.001485  -0.001656   0.000503
   84  H 14  S    0.000146   0.000342  -0.006611   0.006252   0.001914
   85  C 15  S    0.001403  -0.001652  -0.029326  -0.028316  -0.005779
   86  C 15  S    0.000162  -0.000244  -0.006463  -0.006268  -0.001107
   87  C 15  X   -0.000301   0.000310   0.001532   0.001396   0.000705
   88  C 15  Y   -0.000145   0.000191   0.001019   0.000965   0.000250
   89  C 15  Z   -0.000000  -0.000000  -0.000000  -0.000000   0.000000
   90  C 15  S    0.001842  -0.001705   0.024828   0.025233  -0.002184
   91  C 15  X   -0.001879   0.002179  -0.012435  -0.012245  -0.000901
   92  C 15  Y    0.000685  -0.001130  -0.004740  -0.004965   0.000413
   93  C 15  Z   -0.000000  -0.000000  -0.000000  -0.000000   0.000000
   94  C 16  S   -0.001411  -0.001645   0.028510  -0.029137  -0.005776
   95  C 16  S   -0.000163  -0.000243   0.006283  -0.006449  -0.001106
   96  C 16  X   -0.000302  -0.000309   0.001491  -0.001439  -0.000705
   97  C 16  Y   -0.000146  -0.000191   0.000992  -0.000993  -0.000250
   98  C 16  Z   -0.000000  -0.000000  -0.000000  -0.000000   0.000000
   99  C 16  S   -0.001851  -0.001695  -0.024102   0.025927  -0.002185
  100  C 16  X   -0.001890  -0.002169  -0.012083   0.012593   0.000901
  101  C 16  Y    0.000690   0.001127  -0.004598   0.005098  -0.000414
  102  C 16  Z   -0.000000  -0.000000  -0.000000  -0.000000   0.000000
  103  H 17  S   -0.000358   0.000455  -0.001395  -0.001323  -0.000277
  104  H 17  S   -0.000144   0.000273  -0.001316  -0.001366   0.000759
  105  H 18  S    0.000360   0.000453   0.001357  -0.001362  -0.000277
  106  H 18  S    0.000146   0.000272   0.001276  -0.001403   0.000759
  107  H 19  S    0.000194  -0.000260  -0.000270  -0.000316   0.000159
  108  H 19  S    0.000202  -0.000305   0.001851   0.001711   0.000883
  109  H 20  S   -0.000195  -0.000259   0.000261  -0.000324   0.000159
  110  H 20  S   -0.000203  -0.000304  -0.001801   0.001762   0.000883

                      6          7          8          9         10
                  -10.1334   -10.1320   -10.1317   -10.1215   -10.1215
                     A          A          A          A          A   
    1  C  1  S    0.052723   0.013883   0.056427  -0.003143   0.003939
    2  C  1  S    0.001295   0.000186   0.002498  -0.000147   0.000152
    3  C  1  X   -0.001114   0.000007  -0.002303  -0.000557   0.000559
    4  C  1  Y   -0.000360   0.002077   0.000896  -0.000333   0.000360
    5  C  1  Z    0.000000   0.000000   0.000000   0.000000  -0.000000
    6  C  1  S    0.043195   0.012935   0.014395   0.000738  -0.000885
    7  C  1  X    0.033706   0.008172   0.016861   0.000517  -0.002067
    8  C  1  Y   -0.002679  -0.014051  -0.011025   0.001030  -0.003147
    9  C  1  Z    0.000000   0.000000   0.000000   0.000000  -0.000000
   10  C  2  S   -0.052712  -0.013875   0.056431   0.003195   0.003897
   11  C  2  S   -0.001295  -0.000186   0.002499   0.000149   0.000150
   12  C  2  X   -0.001114   0.000007   0.002303  -0.000565  -0.000552
   13  C  2  Y   -0.000359   0.002077  -0.000896  -0.000338  -0.000355
   14  C  2  Z    0.000000   0.000000   0.000000   0.000000  -0.000000
   15  C  2  S   -0.043191  -0.012933   0.014396  -0.000750  -0.000875
   16  C  2  X    0.033702   0.008169  -0.016863   0.000544   0.002060
   17  C  2  Y   -0.002694  -0.014050   0.011027   0.001071   0.003133
   18  C  2  Z    0.000000   0.000000   0.000000   0.000000  -0.000000
   19  C  3  S    0.613248  -0.327497   0.378342  -0.001558   0.006192
   20  C  3  S    0.070481  -0.033676   0.038340   0.000003  -0.000050
   21  C  3  X    0.001325   0.001307  -0.000631  -0.000399   0.000204
   22  C  3  Y   -0.001010   0.000571   0.000857   0.000001   0.000175
   23  C  3  Z    0.000000   0.000000   0.000000   0.000000  -0.000000
   24  C  3  S   -0.089094   0.004813  -0.013780   0.000734   0.002628
   25  C  3  X   -0.017203  -0.011292   0.003770   0.004165  -0.003322
   26  C  3  Y    0.028792   0.004737  -0.000157  -0.000123  -0.002711
   27  C  3  Z    0.000000   0.000000   0.000000   0.000000  -0.000000
   28  C  4  S   -0.612800   0.327556   0.378293   0.001640   0.006171
   29  C  4  S   -0.070430   0.033682   0.038335  -0.000003  -0.000050
   30  C  4  X    0.001325   0.001307   0.000631  -0.000402  -0.000199
   31  C  4  Y   -0.001009   0.000571  -0.000857  -0.000001  -0.000175
   32  C  4  Z    0.000000   0.000000   0.000000   0.000000  -0.000000
   33  C  4  S    0.089042  -0.004816  -0.013779  -0.000699   0.002637
   34  C  4  X   -0.017198  -0.011293  -0.003769   0.004208   0.003267
   35  C  4  Y    0.028779   0.004737   0.000156  -0.000087   0.002712
   36  C  4  Z    0.000000   0.000000   0.000000   0.000000  -0.000000
   37  C  5  S   -0.325115  -0.615150   0.579820   0.000990   0.003276
   38  C  5  S   -0.039626  -0.067487   0.062185   0.000218   0.000153
   39  C  5  X    0.001947   0.000038   0.000139  -0.000308  -0.000213
   40  C  5  Y   -0.000175   0.001019   0.000207  -0.000034  -0.000155
   41  C  5  Z    0.000000   0.000000   0.000000   0.000000  -0.000000
   42  C  5  S    0.071972   0.054851  -0.045353  -0.002869   0.000630
   43  C  5  X   -0.027711  -0.004541   0.001143   0.002639  -0.000814
   44  C  5  Y   -0.018731  -0.010932   0.009219   0.000196   0.002432
   45  C  5  Z    0.000000   0.000000   0.000000   0.000000  -0.000000
   46  C  6  S    0.324816   0.615234   0.579729  -0.000947   0.003289
   47  C  6  S    0.039591   0.067496   0.062175  -0.000216   0.000156
   48  C  6  X    0.001946   0.000038  -0.000139  -0.000305   0.000217
   49  C  6  Y   -0.000176   0.001019  -0.000207  -0.000032   0.000156
   50  C  6  Z    0.000000   0.000000   0.000000   0.000000  -0.000000
   51  C  6  S   -0.071928  -0.054857  -0.045346   0.002877   0.000592
   52  C  6  X   -0.027702  -0.004542  -0.001142   0.002650   0.000780
   53  C  6  Y   -0.018722  -0.010933  -0.009217   0.000164  -0.002434
   54  C  6  Z    0.000000   0.000000   0.000000   0.000000  -0.000000
   55  H  7  S   -0.002195   0.000612  -0.001336   0.000302  -0.000222
   56  H  7  S    0.000197  -0.005748   0.005173   0.000290   0.000832
   57  H  8  S    0.002194  -0.000612  -0.001336  -0.000305  -0.000218
   58  H  8  S   -0.000194   0.005748   0.005172  -0.000279   0.000836
   59  H  9  S    0.001522   0.001813  -0.001903   0.000062  -0.000120
   60  H  9  S    0.002776  -0.005478   0.006292  -0.001410  -0.001434
   61  H 10  S   -0.001521  -0.001813  -0.001903  -0.000063  -0.000120
   62  H 10  S   -0.002777   0.005479   0.006292   0.001391  -0.001452
   63  C 11  S   -0.050421  -0.007899   0.057258   0.029057   0.029226
   64  C 11  S   -0.005037  -0.000726   0.004878   0.000041   0.000093
   65  C 11  X    0.000123   0.000168   0.000746  -0.001830  -0.001690
   66  C 11  Y   -0.000170   0.000497   0.000039  -0.001612  -0.001555
   67  C 11  Z    0.000000   0.000000   0.000000   0.000000  -0.000000
   68  C 11  S   -0.006498  -0.003553   0.002315   0.018038   0.016695
   69  C 11  X    0.005206   0.001030  -0.010594   0.009209   0.008596
   70  C 11  Y   -0.000753  -0.000907  -0.002703   0.007918   0.006692
   71  C 11  Z    0.000000   0.000000   0.000000   0.000000  -0.000000
   72  C 12  S    0.050466   0.007909   0.057260  -0.028669   0.029607
   73  C 12  S    0.005042   0.000727   0.004878  -0.000040   0.000093
   74  C 12  X    0.000124   0.000168  -0.000746  -0.001808   0.001714
   75  C 12  Y   -0.000170   0.000497  -0.000039  -0.001591   0.001576
   76  C 12  Z    0.000000   0.000000   0.000000   0.000000  -0.000000
   77  C 12  S    0.006495   0.003554   0.002314  -0.017817   0.016931
   78  C 12  X    0.005204   0.001032   0.010593   0.009094  -0.008717
   79  C 12  Y   -0.000758  -0.000907   0.002703   0.007829  -0.006796
   80  C 12  Z    0.000000   0.000000   0.000000   0.000000  -0.000000
   81  H 13  S    0.000218  -0.000005  -0.000736  -0.000741  -0.000813
   82  H 13  S   -0.000337  -0.000569   0.000884   0.001134   0.000859
   83  H 14  S   -0.000218   0.000005  -0.000736   0.000730  -0.000823
   84  H 14  S    0.000339   0.000570   0.000884  -0.001123   0.000874
   85  C 15  S    0.004221   0.000433  -0.008979   0.700833   0.691577
   86  C 15  S    0.000884  -0.000013  -0.001800   0.075554   0.074491
   87  C 15  X   -0.000193  -0.000066   0.000273  -0.000030  -0.000021
   88  C 15  Y   -0.000200   0.000059   0.000063  -0.000014  -0.000047
   89  C 15  Z    0.000000   0.000000   0.000000   0.000000  -0.000000
   90  C 15  S   -0.002068   0.000521   0.007613  -0.055418  -0.053707
   91  C 15  X    0.000336  -0.000839  -0.002191   0.004679   0.003993
   92  C 15  Y    0.000874  -0.000613  -0.003096   0.004329   0.003967
   93  C 15  Z    0.000000   0.000000   0.000000   0.000000  -0.000000
   94  C 16  S   -0.004226  -0.000434  -0.008979  -0.691649   0.700762
   95  C 16  S   -0.000885   0.000013  -0.001800  -0.074565   0.075481
   96  C 16  X   -0.000193  -0.000066  -0.000273  -0.000030   0.000021
   97  C 16  Y   -0.000200   0.000059  -0.000063  -0.000014   0.000047
   98  C 16  Z    0.000000   0.000000   0.000000   0.000000  -0.000000
   99  C 16  S    0.002066  -0.000520   0.007613   0.054705  -0.054433
  100  C 16  X    0.000336  -0.000838   0.002191   0.004626  -0.004054
  101  C 16  Y    0.000873  -0.000613   0.003096   0.004276  -0.004024
  102  C 16  Z    0.000000   0.000000   0.000000   0.000000  -0.000000
  103  H 17  S   -0.000088  -0.000174  -0.000006  -0.001363  -0.001427
  104  H 17  S    0.000345   0.000985  -0.000191   0.009840   0.009849
  105  H 18  S    0.000088   0.000174  -0.000006   0.001344  -0.001445
  106  H 18  S   -0.000344  -0.000985  -0.000191  -0.009709   0.009978
  107  H 19  S    0.000143   0.000066  -0.000387  -0.001229  -0.001215
  108  H 19  S   -0.000058   0.000118   0.000217   0.009636   0.009657
  109  H 20  S   -0.000143  -0.000066  -0.000387   0.001213  -0.001231
  110  H 20  S    0.000059  -0.000118   0.000217  -0.009508   0.009783

                     11         12         13         14         15
                   -0.8584    -0.8000    -0.7635    -0.7458    -0.7135
                     A          A          A          A          A   
    1  C  1  S   -0.101359   0.099474  -0.007710  -0.012381  -0.091301
    2  C  1  S    0.109907  -0.106871   0.007745   0.013342   0.097442
    3  C  1  X    0.040598   0.024747  -0.079654   0.019102   0.048569
    4  C  1  Y   -0.006734  -0.001077   0.005677   0.099653  -0.013231
    5  C  1  Z    0.000000  -0.000000   0.000000  -0.000000   0.000000
    6  C  1  S    0.196331  -0.206078   0.017363   0.027278   0.230695
    7  C  1  X    0.000730   0.012469  -0.005540   0.001286  -0.005866
    8  C  1  Y    0.010719  -0.011100   0.013319   0.014110   0.000534
    9  C  1  Z    0.000000  -0.000000   0.000000  -0.000000   0.000000
   10  C  2  S   -0.101360  -0.099475  -0.007709   0.012381   0.091301
   11  C  2  S    0.109906   0.106870   0.007745  -0.013342  -0.097442
   12  C  2  X   -0.040598   0.024748   0.079653   0.019102   0.048568
   13  C  2  Y    0.006734  -0.001077  -0.005677   0.099652  -0.013231
   14  C  2  Z    0.000000  -0.000000   0.000000  -0.000000   0.000000
   15  C  2  S    0.196344   0.206082   0.017360  -0.027280  -0.230700
   16  C  2  X   -0.000737   0.012467   0.005544   0.001285  -0.005865
   17  C  2  Y   -0.010713  -0.011099  -0.013322   0.014110   0.000534
   18  C  2  Z    0.000000  -0.000000   0.000000  -0.000000   0.000000
   19  C  3  S   -0.091289   0.037308   0.042015  -0.123925  -0.036350
   20  C  3  S    0.100981  -0.039509  -0.043706   0.132200   0.037504
   21  C  3  X    0.014212   0.048795  -0.032982   0.047792  -0.070601
   22  C  3  Y   -0.051730   0.023012   0.015995  -0.005144  -0.033005
   23  C  3  Z    0.000000  -0.000000   0.000000  -0.000000   0.000000
   24  C  3  S    0.162594  -0.088376  -0.101372   0.290418   0.107388
   25  C  3  X    0.008494  -0.011997   0.000482   0.004448  -0.003314
   26  C  3  Y   -0.009684   0.010521   0.017244  -0.004061  -0.012971
   27  C  3  Z    0.000000  -0.000000   0.000000  -0.000000   0.000000
   28  C  4  S   -0.091289  -0.037308   0.042016   0.123925   0.036350
   29  C  4  S    0.100982   0.039509  -0.043707  -0.132200  -0.037504
   30  C  4  X   -0.014212   0.048795   0.032982   0.047792  -0.070601
   31  C  4  Y    0.051730   0.023012  -0.015995  -0.005144  -0.033005
   32  C  4  Z    0.000000  -0.000000   0.000000  -0.000000   0.000000
   33  C  4  S    0.162589   0.088373  -0.101371  -0.290418  -0.107385
   34  C  4  X   -0.008492  -0.011997  -0.000484   0.004449  -0.003314
   35  C  4  Y    0.009676   0.010520  -0.017241  -0.004062  -0.012970
   36  C  4  Z    0.000000  -0.000000   0.000000  -0.000000   0.000000
   37  C  5  S   -0.091180  -0.041217   0.037125  -0.111762   0.068153
   38  C  5  S    0.099761   0.042709  -0.039755   0.119366  -0.072109
   39  C  5  X   -0.030350   0.038053   0.041711  -0.057573  -0.032449
   40  C  5  Y   -0.044114  -0.037606   0.003315   0.022068   0.045554
   41  C  5  Z    0.000000  -0.000000   0.000000  -0.000000   0.000000
   42  C  5  S    0.174027   0.109502  -0.081951   0.260320  -0.180747
   43  C  5  X   -0.007771  -0.009033   0.021204  -0.006882   0.010735
   44  C  5  Y   -0.015401  -0.010756  -0.002090   0.001791   0.008885
   45  C  5  Z    0.000000  -0.000000   0.000000  -0.000000   0.000000
   46  C  6  S   -0.091180   0.041217   0.037126   0.111762  -0.068153
   47  C  6  S    0.099760  -0.042709  -0.039755  -0.119366   0.072109
   48  C  6  X    0.030350   0.038053  -0.041711  -0.057573  -0.032449
   49  C  6  Y    0.044114  -0.037606  -0.003315   0.022068   0.045553
   50  C  6  Z    0.000000  -0.000000   0.000000  -0.000000   0.000000
   51  C  6  S    0.174040  -0.109502  -0.081958  -0.260318   0.180747
   52  C  6  X    0.007772  -0.009033  -0.021205  -0.006882   0.010735
   53  C  6  Y    0.015409  -0.010757   0.002087   0.001791   0.008887
   54  C  6  Z    0.000000  -0.000000   0.000000  -0.000000   0.000000
   55  H  7  S    0.031712  -0.019447  -0.014380   0.064598   0.019496
   56  H  7  S   -0.000890  -0.009280  -0.001721   0.012692   0.005599
   57  H  8  S    0.031712   0.019447  -0.014380  -0.064598  -0.019496
   58  H  8  S   -0.000893   0.009280  -0.001720  -0.012693  -0.005599
   59  H  9  S    0.031916   0.021503  -0.010223   0.058757  -0.035203
   60  H  9  S   -0.000504   0.009729   0.004120   0.010731  -0.004448
   61  H 10  S    0.031917  -0.021503  -0.010223  -0.058757   0.035203
   62  H 10  S   -0.000502  -0.009730   0.004119  -0.010732   0.004449
   63  C 11  S   -0.043427  -0.105145  -0.113931  -0.000825  -0.053872
   64  C 11  S    0.048366   0.113772   0.122392   0.001047   0.057689
   65  C 11  X   -0.022207  -0.006464   0.045874   0.016445   0.103262
   66  C 11  Y    0.011938   0.033691   0.044950   0.021244   0.036795
   67  C 11  Z    0.000000  -0.000000   0.000000  -0.000000   0.000000
   68  C 11  S    0.076187   0.215018   0.259584  -0.001506   0.138970
   69  C 11  X    0.008170  -0.002684  -0.000246   0.003343   0.015539
   70  C 11  Y    0.004596   0.007373   0.014207   0.005103   0.011231
   71  C 11  Z    0.000000  -0.000000   0.000000  -0.000000   0.000000
   72  C 12  S   -0.043427   0.105145  -0.113931   0.000825   0.053872
   73  C 12  S    0.048366  -0.113772   0.122392  -0.001047  -0.057689
   74  C 12  X    0.022207  -0.006464  -0.045874   0.016445   0.103262
   75  C 12  Y   -0.011938   0.033691  -0.044950   0.021244   0.036795
   76  C 12  Z    0.000000  -0.000000   0.000000  -0.000000   0.000000
   77  C 12  S    0.076187  -0.215017   0.259586   0.001506  -0.138971
   78  C 12  X   -0.008171  -0.002684   0.000248   0.003344   0.015539
   79  C 12  Y   -0.004598   0.007373  -0.014207   0.005103   0.011231
   80  C 12  Z    0.000000  -0.000000   0.000000  -0.000000   0.000000
   81  H 13  S    0.018048   0.046142   0.052734  -0.006144   0.027300
   82  H 13  S    0.000155   0.004248   0.007922  -0.006127   0.005116
   83  H 14  S    0.018048  -0.046141   0.052734   0.006144  -0.027300
   84  H 14  S    0.000156  -0.004248   0.007922   0.006127  -0.005116
   85  C 15  S   -0.020517  -0.071728  -0.107111  -0.014211  -0.102276
   86  C 15  S    0.023512   0.078464   0.116013   0.014595   0.109713
   87  C 15  X   -0.017490  -0.045750  -0.052572  -0.006278  -0.025894
   88  C 15  Y   -0.009472  -0.032680  -0.046311  -0.000960  -0.037515
   89  C 15  Z    0.000000  -0.000000   0.000000  -0.000000   0.000000
   90  C 15  S    0.029996   0.144742   0.233385   0.034846   0.247475
   91  C 15  X    0.001267  -0.003952  -0.002906  -0.006493   0.002350
   92  C 15  Y    0.002516  -0.004662  -0.009733  -0.001317  -0.010878
   93  C 15  Z    0.000000  -0.000000   0.000000  -0.000000   0.000000
   94  C 16  S   -0.020517   0.071727  -0.107111   0.014211   0.102276
   95  C 16  S    0.023512  -0.078464   0.116013  -0.014596  -0.109713
   96  C 16  X    0.017490  -0.045750   0.052572  -0.006278  -0.025894
   97  C 16  Y    0.009472  -0.032680   0.046311  -0.000960  -0.037515
   98  C 16  Z    0.000000  -0.000000   0.000000  -0.000000   0.000000
   99  C 16  S    0.029995  -0.144742   0.233386  -0.034847  -0.247474
  100  C 16  X   -0.001268  -0.003952   0.002906  -0.006493   0.002350
  101  C 16  Y   -0.002516  -0.004662   0.009733  -0.001317  -0.010878
  102  C 16  Z    0.000000  -0.000000   0.000000  -0.000000   0.000000
  103  H 17  S    0.009142   0.031862   0.048975   0.009178   0.050131
  104  H 17  S    0.002093   0.004104   0.004697   0.005766   0.005455
  105  H 18  S    0.009142  -0.031862   0.048975  -0.009178  -0.050131
  106  H 18  S    0.002093  -0.004104   0.004697  -0.005765  -0.005456
  107  H 19  S    0.006885   0.028030   0.047849   0.006180   0.056246
  108  H 19  S   -0.002511  -0.001996   0.001772   0.002510   0.009471
  109  H 20  S    0.006885  -0.028030   0.047849  -0.006180  -0.056246
  110  H 20  S   -0.002512   0.001996   0.001772  -0.002511  -0.009471

                     16         17         18         19         20
                   -0.6340    -0.6055    -0.5711    -0.5533    -0.5020
                     A          A          A          A          A   
    1  C  1  S    0.069892   0.050958  -0.010315   0.045235   0.029939
    2  C  1  S   -0.073661  -0.053703   0.011397  -0.049777  -0.030087
    3  C  1  X    0.055942   0.049488   0.112376  -0.118930   0.089060
    4  C  1  Y   -0.099057   0.150382  -0.048623  -0.012753  -0.039458
    5  C  1  Z    0.000000   0.000000  -0.000000   0.000000  -0.000000
    6  C  1  S   -0.204719  -0.159881   0.031369  -0.142773  -0.113501
    7  C  1  X    0.011673   0.013002   0.032529  -0.073656   0.063832
    8  C  1  Y   -0.033518   0.049468  -0.029649   0.003070  -0.017789
    9  C  1  Z    0.000000   0.000000  -0.000000   0.000000  -0.000000
   10  C  2  S    0.069892   0.050958   0.010316   0.045235   0.029939
   11  C  2  S   -0.073660  -0.053703  -0.011398  -0.049775  -0.030087
   12  C  2  X   -0.055942  -0.049488   0.112376   0.118929  -0.089060
   13  C  2  Y    0.099057  -0.150382  -0.048623   0.012753   0.039457
   14  C  2  Z    0.000000   0.000000  -0.000000   0.000000  -0.000000
   15  C  2  S   -0.204729  -0.159881  -0.031370  -0.142790  -0.113501
   16  C  2  X   -0.011672  -0.013009   0.032529   0.073669  -0.063837
   17  C  2  Y    0.033518  -0.049464  -0.029651  -0.003077   0.017794
   18  C  2  Z    0.000000   0.000000  -0.000000   0.000000  -0.000000
   19  C  3  S    0.002266  -0.103418  -0.046767  -0.008956   0.014895
   20  C  3  S   -0.002494   0.107153   0.048885   0.007922  -0.012210
   21  C  3  X    0.132372  -0.023914   0.002471   0.068145   0.101976
   22  C  3  Y    0.025903   0.050212  -0.009776   0.140528  -0.092162
   23  C  3  Z    0.000000   0.000000  -0.000000   0.000000  -0.000000
   24  C  3  S   -0.004114   0.327644   0.157055   0.032798  -0.070674
   25  C  3  X    0.051974  -0.010097   0.013893   0.015786   0.046894
   26  C  3  Y    0.006971   0.007717  -0.008362   0.076744  -0.060020
   27  C  3  Z    0.000000   0.000000  -0.000000   0.000000  -0.000000
   28  C  4  S    0.002266  -0.103419   0.046767  -0.008957   0.014895
   29  C  4  S   -0.002494   0.107153  -0.048885   0.007922  -0.012210
   30  C  4  X   -0.132372   0.023914   0.002471  -0.068145  -0.101976
   31  C  4  Y   -0.025903  -0.050212  -0.009776  -0.140528   0.092162
   32  C  4  Z    0.000000   0.000000  -0.000000   0.000000  -0.000000
   33  C  4  S   -0.004112   0.327642  -0.157056   0.032808  -0.070676
   34  C  4  X   -0.051971   0.010101   0.013892  -0.015788  -0.046890
   35  C  4  Y   -0.006967  -0.007722  -0.008364  -0.076732   0.060018
   36  C  4  Z    0.000000   0.000000  -0.000000   0.000000  -0.000000
   37  C  5  S   -0.077486   0.053980   0.028519  -0.048899  -0.015642
   38  C  5  S    0.081381  -0.055986  -0.029567   0.048038   0.018067
   39  C  5  X   -0.028461  -0.133514  -0.060743   0.023875  -0.095319
   40  C  5  Y    0.046710   0.074068   0.036807   0.149687  -0.059446
   41  C  5  Z    0.000000   0.000000  -0.000000   0.000000  -0.000000
   42  C  5  S    0.223816  -0.171962  -0.097445   0.181013   0.052126
   43  C  5  X   -0.007335  -0.044054  -0.015047   0.014765  -0.061703
   44  C  5  Y    0.003263   0.033402   0.015409   0.075016  -0.041464
   45  C  5  Z    0.000000   0.000000  -0.000000   0.000000  -0.000000
   46  C  6  S   -0.077486   0.053980  -0.028519  -0.048899  -0.015642
   47  C  6  S    0.081381  -0.055986   0.029567   0.048039   0.018066
   48  C  6  X    0.028461   0.133514  -0.060743  -0.023875   0.095319
   49  C  6  Y   -0.046709  -0.074069   0.036807  -0.149687   0.059446
   50  C  6  Z    0.000000   0.000000  -0.000000   0.000000  -0.000000
   51  C  6  S    0.223815  -0.171956   0.097447   0.180997   0.052134
   52  C  6  X    0.007335   0.044058  -0.015047  -0.014770   0.061705
   53  C  6  Y   -0.003268  -0.033398   0.015411  -0.075029   0.041466
   54  C  6  Z    0.000000   0.000000  -0.000000   0.000000  -0.000000
   55  H  7  S   -0.011714   0.100144   0.029310   0.062226  -0.078016
   56  H  7  S   -0.007490   0.050237   0.008442   0.040675  -0.049174
   57  H  8  S   -0.011714   0.100144  -0.029310   0.062227  -0.078016
   58  H  8  S   -0.007489   0.050235  -0.008443   0.040680  -0.049176
   59  H  9  S    0.063538  -0.051429  -0.031035   0.102075  -0.050912
   60  H  9  S    0.033194  -0.023568  -0.022624   0.055838  -0.044197
   61  H 10  S    0.063538  -0.051429   0.031036   0.102074  -0.050912
   62  H 10  S    0.033192  -0.023566   0.022625   0.055833  -0.044197
   63  C 11  S    0.043017   0.002922  -0.090262  -0.053447  -0.044854
   64  C 11  S   -0.044305  -0.002428   0.093514   0.057241   0.044947
   65  C 11  X    0.109659   0.062324  -0.045041  -0.016910   0.136844
   66  C 11  Y    0.059685  -0.034417  -0.082306  -0.041712  -0.077270
   67  C 11  Z    0.000000   0.000000  -0.000000   0.000000  -0.000000
   68  C 11  S   -0.134335  -0.013303   0.301086   0.167472   0.171038
   69  C 11  X    0.041009   0.014229  -0.019949  -0.000756   0.070317
   70  C 11  Y    0.024205  -0.031728  -0.035126  -0.018889  -0.043339
   71  C 11  Z    0.000000   0.000000  -0.000000   0.000000  -0.000000
   72  C 12  S    0.043017   0.002922   0.090262  -0.053447  -0.044854
   73  C 12  S   -0.044305  -0.002427  -0.093513   0.057242   0.044947
   74  C 12  X   -0.109659  -0.062324  -0.045041   0.016910  -0.136844
   75  C 12  Y   -0.059685   0.034417  -0.082305   0.041712   0.077270
   76  C 12  Z    0.000000   0.000000  -0.000000   0.000000  -0.000000
   77  C 12  S   -0.134336  -0.013306  -0.301086   0.167476   0.171035
   78  C 12  X   -0.041011  -0.014233  -0.019950   0.000760  -0.070321
   79  C 12  Y   -0.024204   0.031728  -0.035126   0.018890   0.043338
   80  C 12  Z    0.000000   0.000000  -0.000000   0.000000  -0.000000
   81  H 13  S   -0.044021   0.021353   0.101631   0.062264   0.094155
   82  H 13  S   -0.018750   0.014134   0.049699   0.034976   0.058270
   83  H 14  S   -0.044021   0.021353  -0.101630   0.062264   0.094155
   84  H 14  S   -0.018750   0.014133  -0.049698   0.034975   0.058271
   85  C 15  S   -0.077886  -0.035388   0.078401   0.051456   0.023218
   86  C 15  S    0.081414   0.036835  -0.079725  -0.052348  -0.021161
   87  C 15  X    0.017657   0.028282  -0.062023  -0.055095  -0.016273
   88  C 15  Y    0.011912  -0.015394  -0.080634  -0.049100  -0.157493
   89  C 15  Z    0.000000   0.000000  -0.000000   0.000000  -0.000000
   90  C 15  S    0.221443   0.115804  -0.260663  -0.176273  -0.102074
   91  C 15  X    0.002327   0.016224  -0.015956  -0.027356   0.007918
   92  C 15  Y    0.005790  -0.010969  -0.037111  -0.022293  -0.088698
   93  C 15  Z    0.000000   0.000000  -0.000000   0.000000  -0.000000
   94  C 16  S   -0.077887  -0.035388  -0.078401   0.051456   0.023218
   95  C 16  S    0.081414   0.036836   0.079725  -0.052348  -0.021161
   96  C 16  X   -0.017657  -0.028282  -0.062023   0.055095   0.016273
   97  C 16  Y   -0.011911   0.015394  -0.080633   0.049100   0.157493
   98  C 16  Z    0.000000   0.000000  -0.000000   0.000000  -0.000000
   99  C 16  S    0.221443   0.115803   0.260663  -0.176272  -0.102076
  100  C 16  X   -0.002327  -0.016223  -0.015956   0.027357  -0.007918
  101  C 16  Y   -0.005791   0.010967  -0.037111   0.022294   0.088696
  102  C 16  Z    0.000000   0.000000  -0.000000   0.000000  -0.000000
  103  H 17  S    0.059488   0.014410  -0.095019  -0.056873  -0.107340
  104  H 17  S    0.024455  -0.001947  -0.052107  -0.024876  -0.077955
  105  H 18  S    0.059487   0.014410   0.095018  -0.056873  -0.107340
  106  H 18  S    0.024455  -0.001948   0.052107  -0.024875  -0.077955
  107  H 19  S    0.058854   0.039118  -0.077424  -0.059763  -0.004802
  108  H 19  S    0.024474   0.015555  -0.042368  -0.031534  -0.004534
  109  H 20  S    0.058854   0.039119   0.077424  -0.059763  -0.004802
  110  H 20  S    0.024475   0.015555   0.042368  -0.031534  -0.004533

                     21         22         23         24         25
                   -0.4868    -0.4548    -0.4457    -0.4403    -0.4222
                     A          A          A          A          A   
    1  C  1  S   -0.014849   0.047414   0.047950   0.015979   0.001897
    2  C  1  S    0.015797  -0.049247  -0.048764  -0.014697  -0.001593
    3  C  1  X   -0.104683   0.052443  -0.115193  -0.001217  -0.068258
    4  C  1  Y   -0.125976  -0.132040   0.103842  -0.004573  -0.075213
    5  C  1  Z   -0.000000  -0.000000   0.000000  -0.000000   0.000000
    6  C  1  S    0.059071  -0.187952  -0.203119  -0.070382  -0.013254
    7  C  1  X   -0.048402   0.028362  -0.072866   0.013244  -0.033344
    8  C  1  Y   -0.079569  -0.076812   0.052138  -0.020569  -0.007511
    9  C  1  Z   -0.000000  -0.000000   0.000000  -0.000000   0.000000
   10  C  2  S    0.014849  -0.047414  -0.047950   0.015978  -0.001897
   11  C  2  S   -0.015797   0.049246   0.048764  -0.014696   0.001592
   12  C  2  X   -0.104683   0.052443  -0.115193   0.001216  -0.068257
   13  C  2  Y   -0.125976  -0.132040   0.103842   0.004573  -0.075213
   14  C  2  Z   -0.000000  -0.000000   0.000000  -0.000000   0.000000
   15  C  2  S   -0.059072   0.187958   0.203122  -0.070375   0.013258
   16  C  2  X   -0.048402   0.028360  -0.072867  -0.013255  -0.033348
   17  C  2  Y   -0.079573  -0.076820   0.052137   0.020574  -0.007511
   18  C  2  Z   -0.000000  -0.000000   0.000000  -0.000000   0.000000
   19  C  3  S    0.015797  -0.042295  -0.021632  -0.023761   0.023834
   20  C  3  S   -0.015723   0.041902   0.020735   0.024410  -0.028283
   21  C  3  X    0.163906   0.066836  -0.048980   0.047377  -0.091843
   22  C  3  Y    0.017569   0.132935   0.086632   0.001245   0.226138
   23  C  3  Z   -0.000000  -0.000000   0.000000  -0.000000   0.000000
   24  C  3  S   -0.063977   0.172307   0.090754   0.100297  -0.084399
   25  C  3  X    0.084895   0.029695  -0.060142   0.033660  -0.050200
   26  C  3  Y    0.010063   0.075786   0.042728  -0.006526   0.158440
   27  C  3  Z   -0.000000  -0.000000   0.000000  -0.000000   0.000000
   28  C  4  S   -0.015797   0.042296   0.021633  -0.023760  -0.023834
   29  C  4  S    0.015723  -0.041901  -0.020734   0.024410   0.028284
   30  C  4  X    0.163907   0.066836  -0.048980  -0.047377  -0.091843
   31  C  4  Y    0.017569   0.132934   0.086632  -0.001243   0.226138
   32  C  4  Z   -0.000000  -0.000000   0.000000  -0.000000   0.000000
   33  C  4  S    0.063976  -0.172317  -0.090761   0.100288   0.084396
   34  C  4  X    0.084894   0.029695  -0.060138  -0.033655  -0.050201
   35  C  4  Y    0.010063   0.075777   0.042723   0.006520   0.158438
   36  C  4  Z   -0.000000  -0.000000   0.000000  -0.000000   0.000000
   37  C  5  S   -0.032966   0.046871   0.012485   0.020462   0.015350
   38  C  5  S    0.033854  -0.047457  -0.010217  -0.017479  -0.018987
   39  C  5  X   -0.109561  -0.122634  -0.027247  -0.090585   0.151802
   40  C  5  Y    0.078727   0.015753  -0.201969  -0.022103   0.136004
   41  C  5  Z   -0.000000  -0.000000   0.000000  -0.000000   0.000000
   42  C  5  S    0.121727  -0.183031  -0.057495  -0.099179  -0.049798
   43  C  5  X   -0.060028  -0.073010  -0.043652  -0.043656   0.078090
   44  C  5  Y    0.035624   0.007427  -0.104470  -0.014841   0.111405
   45  C  5  Z   -0.000000  -0.000000   0.000000  -0.000000   0.000000
   46  C  6  S    0.032966  -0.046871  -0.012485   0.020462  -0.015350
   47  C  6  S   -0.033854   0.047456   0.010216  -0.017479   0.018988
   48  C  6  X   -0.109561  -0.122634  -0.027249   0.090584   0.151802
   49  C  6  Y    0.078727   0.015753  -0.201969   0.022101   0.136004
   50  C  6  Z   -0.000000  -0.000000   0.000000  -0.000000   0.000000
   51  C  6  S   -0.121723   0.183037   0.057501  -0.099167   0.049795
   52  C  6  X   -0.060029  -0.073008  -0.043648   0.043661   0.078089
   53  C  6  Y    0.035626   0.007432  -0.104470   0.014846   0.111403
   54  C  6  Z   -0.000000  -0.000000   0.000000  -0.000000   0.000000
   55  H  7  S   -0.041181   0.105799   0.084941   0.009818   0.139290
   56  H  7  S   -0.032918   0.081536   0.067365   0.000128   0.129703
   57  H  8  S    0.041181  -0.105799  -0.084941   0.009817  -0.139290
   58  H  8  S    0.032919  -0.081539  -0.067367   0.000124  -0.129703
   59  H  9  S    0.021975  -0.083211  -0.129979  -0.063033   0.118081
   60  H  9  S    0.009336  -0.051177  -0.114853  -0.046086   0.106674
   61  H 10  S   -0.021976   0.083211   0.129979  -0.063031  -0.118081
   62  H 10  S   -0.009337   0.051180   0.114854  -0.046081  -0.106674
   63  C 11  S    0.014863   0.010491   0.005439  -0.021837  -0.003110
   64  C 11  S   -0.017348  -0.012114  -0.005491   0.026319   0.003877
   65  C 11  X    0.062393  -0.157873   0.081447   0.055562   0.057364
   66  C 11  Y   -0.150838  -0.003376   0.000122   0.195719  -0.007373
   67  C 11  Z   -0.000000  -0.000000   0.000000  -0.000000   0.000000
   68  C 11  S   -0.048298  -0.033838  -0.020530   0.070275   0.006901
   69  C 11  X    0.033713  -0.078526   0.065192   0.010047   0.038295
   70  C 11  Y   -0.099914   0.001566  -0.000447   0.121530  -0.010764
   71  C 11  Z   -0.000000  -0.000000   0.000000  -0.000000   0.000000
   72  C 12  S   -0.014863  -0.010491  -0.005439  -0.021838   0.003110
   73  C 12  S    0.017348   0.012114   0.005491   0.026319  -0.003877
   74  C 12  X    0.062393  -0.157872   0.081448  -0.055561   0.057364
   75  C 12  Y   -0.150837  -0.003375   0.000125  -0.195719  -0.007373
   76  C 12  Z   -0.000000  -0.000000   0.000000  -0.000000   0.000000
   77  C 12  S    0.048298   0.033838   0.020531   0.070270  -0.006900
   78  C 12  X    0.033712  -0.078529   0.065192  -0.010051   0.038296
   79  C 12  Y   -0.099916   0.001562  -0.000447  -0.121530  -0.010764
   80  C 12  Z   -0.000000  -0.000000   0.000000  -0.000000   0.000000
   81  H 13  S    0.081436  -0.033202   0.001358  -0.092207   0.009474
   82  H 13  S    0.066443  -0.032322  -0.004742  -0.083832  -0.002399
   83  H 14  S   -0.081435   0.033203  -0.001357  -0.092207  -0.009474
   84  H 14  S   -0.066442   0.032324   0.004744  -0.083832   0.002399
   85  C 15  S   -0.013625  -0.013207  -0.004149  -0.000345   0.004321
   86  C 15  S    0.011340   0.010750   0.005846   0.006198  -0.003276
   87  C 15  X    0.141200   0.049447   0.055005  -0.243439  -0.013695
   88  C 15  Y   -0.042590   0.143129  -0.123417  -0.017111  -0.055371
   89  C 15  Z   -0.000000  -0.000000   0.000000  -0.000000   0.000000
   90  C 15  S    0.064545   0.063912   0.001413  -0.022390  -0.023351
   91  C 15  X    0.079054   0.028695   0.046527  -0.141643  -0.011182
   92  C 15  Y   -0.037806   0.091842  -0.072826   0.005627  -0.038220
   93  C 15  Z   -0.000000  -0.000000   0.000000  -0.000000   0.000000
   94  C 16  S    0.013625   0.013207   0.004149  -0.000345  -0.004321
   95  C 16  S   -0.011340  -0.010750  -0.005846   0.006197   0.003276
   96  C 16  X    0.141200   0.049446   0.055003   0.243440  -0.013695
   97  C 16  Y   -0.042591   0.143129  -0.123417   0.017110  -0.055371
   98  C 16  Z   -0.000000  -0.000000   0.000000  -0.000000   0.000000
   99  C 16  S   -0.064546  -0.063915  -0.001414  -0.022392   0.023351
  100  C 16  X    0.079052   0.028694   0.046525   0.141644  -0.011182
  101  C 16  Y   -0.037806   0.091840  -0.072826  -0.005628  -0.038220
  102  C 16  Z   -0.000000  -0.000000   0.000000  -0.000000   0.000000
  103  H 17  S   -0.025353   0.088217  -0.085361   0.011053  -0.031455
  104  H 17  S   -0.016338   0.059484  -0.082543  -0.005024  -0.016852
  105  H 18  S    0.025353  -0.088218   0.085361   0.011054   0.031455
  106  H 18  S    0.016338  -0.059484   0.082543  -0.005024   0.016852
  107  H 19  S    0.095444   0.017266   0.059580  -0.144256  -0.002678
  108  H 19  S    0.071452   0.012904   0.046618  -0.128342  -0.000996
  109  H 20  S   -0.095443  -0.017265  -0.059578  -0.144256   0.002678
  110  H 20  S   -0.071452  -0.012903  -0.046617  -0.128342   0.000996

                     26         27         28         29         30
                   -0.4050    -0.3898    -0.3764    -0.3538    -0.3458
                     A          A          A          A          A   
    1  C  1  S    0.003700   0.022876  -0.000000   0.011466   0.006901
    2  C  1  S   -0.002914  -0.021904  -0.000000  -0.010073  -0.005892
    3  C  1  X    0.115724  -0.030866  -0.000000   0.154305   0.187496
    4  C  1  Y    0.109643   0.067751  -0.000000  -0.058147   0.091285
    5  C  1  Z    0.000000   0.000000   0.196429   0.000000   0.000000
    6  C  1  S   -0.015741  -0.106669  -0.000000  -0.063936  -0.035488
    7  C  1  X    0.088793  -0.028015  -0.000000   0.107706   0.142728
    8  C  1  Y    0.062534   0.049619  -0.000000  -0.042976   0.053723
    9  C  1  Z    0.000000   0.000000   0.168814   0.000000   0.000000
   10  C  2  S   -0.003700   0.022876  -0.000000  -0.011466   0.006901
   11  C  2  S    0.002914  -0.021903  -0.000000   0.010072  -0.005892
   12  C  2  X    0.115724   0.030864  -0.000000   0.154307  -0.187495
   13  C  2  Y    0.109642  -0.067751  -0.000000  -0.058146  -0.091286
   14  C  2  Z    0.000000   0.000000   0.196428   0.000000   0.000000
   15  C  2  S    0.015743  -0.106683  -0.000000   0.063940  -0.035492
   16  C  2  X    0.088793   0.028026  -0.000000   0.107706  -0.142718
   17  C  2  Y    0.062537  -0.049618  -0.000000  -0.042977  -0.053727
   18  C  2  Z    0.000000   0.000000   0.168813   0.000000   0.000000
   19  C  3  S   -0.014230   0.005989  -0.000000  -0.003577  -0.000921
   20  C  3  S    0.014526  -0.003045  -0.000000   0.004634   0.000029
   21  C  3  X   -0.163119   0.123921  -0.000000   0.025025  -0.185895
   22  C  3  Y   -0.051236  -0.092492  -0.000000  -0.041578  -0.093552
   23  C  3  Z    0.000000   0.000000   0.171944   0.000000   0.000000
   24  C  3  S    0.053036  -0.033039  -0.000000   0.008436   0.010720
   25  C  3  X   -0.086332   0.074619  -0.000000   0.011836  -0.117074
   26  C  3  Y   -0.021297  -0.078694  -0.000000  -0.036398  -0.069402
   27  C  3  Z    0.000000   0.000000   0.148316   0.000000   0.000000
   28  C  4  S    0.014229   0.005989  -0.000000   0.003577  -0.000921
   29  C  4  S   -0.014527  -0.003046  -0.000000  -0.004634   0.000028
   30  C  4  X   -0.163120  -0.123920  -0.000000   0.025023   0.185896
   31  C  4  Y   -0.051236   0.092492  -0.000000  -0.041578   0.093552
   32  C  4  Z    0.000000   0.000000   0.171944   0.000000   0.000000
   33  C  4  S   -0.053033  -0.033024  -0.000000  -0.008435   0.010732
   34  C  4  X   -0.086334  -0.074619  -0.000000   0.011832   0.117065
   35  C  4  Y   -0.021295   0.078705  -0.000000  -0.036399   0.069408
   36  C  4  Z    0.000000   0.000000   0.148316   0.000000   0.000000
   37  C  5  S    0.005757  -0.006451  -0.000000   0.009968   0.004749
   38  C  5  S   -0.007654   0.006738  -0.000000  -0.011372  -0.008471
   39  C  5  X    0.143661  -0.126536  -0.000000  -0.004002   0.158134
   40  C  5  Y   -0.036795   0.055428  -0.000000   0.092601   0.058246
   41  C  5  Z    0.000000   0.000000   0.171406   0.000000   0.000000
   42  C  5  S   -0.014754   0.030852  -0.000000  -0.025716  -0.010936
   43  C  5  X    0.090354  -0.077289  -0.000000  -0.000279   0.127174
   44  C  5  Y   -0.026054   0.013010  -0.000000   0.074871   0.056469
   45  C  5  Z    0.000000   0.000000   0.147180   0.000000   0.000000
   46  C  6  S   -0.005757  -0.006451  -0.000000  -0.009967   0.004749
   47  C  6  S    0.007655   0.006739  -0.000000   0.011373  -0.008469
   48  C  6  X    0.143662   0.126535  -0.000000  -0.004000  -0.158134
   49  C  6  Y   -0.036795  -0.055428  -0.000000   0.092600  -0.058245
   50  C  6  Z    0.000000   0.000000   0.171406   0.000000   0.000000
   51  C  6  S    0.014749   0.030843  -0.000000   0.025712  -0.010951
   52  C  6  X    0.090353   0.077282  -0.000000  -0.000280  -0.127183
   53  C  6  Y   -0.026056  -0.013019  -0.000000   0.074870  -0.056473
   54  C  6  Z    0.000000   0.000000   0.147180   0.000000   0.000000
[...]

                       TOTAL       BONDED        FREE
      ATOM            VALENCE     VALENCE     VALENCE
    1 C                 3.741       3.741      -0.000
    2 C                 3.741       3.741      -0.000
    3 C                 3.764       3.764      -0.000
    4 C                 3.764       3.764      -0.000
    5 C                 3.775       3.775       0.000
    6 C                 3.775       3.775       0.000
    7 H                 0.936       0.936       0.000
    8 H                 0.936       0.936       0.000
    9 H                 0.938       0.938       0.000
   10 H                 0.938       0.938       0.000
   11 C                 3.780       3.780      -0.000
   12 C                 3.780       3.780      -0.000
   13 H                 0.932       0.932      -0.000
   14 H                 0.932       0.932      -0.000
   15 C                 3.782       3.782       0.000
   16 C                 3.782       3.782       0.000
   17 H                 0.935       0.935       0.000
   18 H                 0.935       0.935       0.000
   19 H                 0.930       0.930       0.000
   20 H                 0.930       0.930       0.000

          ---------------------
          ELECTROSTATIC MOMENTS
          ---------------------

 POINT   1           X           Y           Z (BOHR)    CHARGE
                 0.000000    0.000000    0.000000       -0.00 (A.U.)
         DX          DY          DZ         /D/  (DEBYE)
     0.000006   -0.000007    0.000000    0.000009
 ...... END OF PROPERTY EVALUATION ......
 CPU     0: STEP CPU TIME=     0.02 TOTAL CPU TIME=       35.7 (    0.6 MIN)
 TOTAL WALL CLOCK TIME=       46.3 SECONDS, CPU UTILIZATION IS  77.00%

 -----------------------------------------------------------------------
                    TDDFT CALCULATION FOR SCFTYP=RHF 
                          CODED BY MAHITO CHIBA
 NATIONAL INSTITUTE OF ADVANCED INDUSTRIAL SCIENCE AND TECHNOLOGY, JAPAN
 -----------------------------------------------------------------------
  
 -TDDFT RUNTIME PARAMETERS-
    TRIPLET  = F
    NONEQ    = T
    NSTATE   =                   10
    IROOT    =                    1
    NTRIAL   =                    5
    MAXVEC   =                   50
    ILENG    =                  200
    MAXGRD   =                87164
    NRAD     =                   48
    NLEB     =                  110
 GAS PHASE COMPUTATION
  
 FOR AN EULER-MACLAURIN QUADRATURE USING  48 RADIAL POINTS:
 SMALLEST GAUSSIAN PRIMITIVE EXPONENT=        0.1831915800 OF TYPE -S-
 ON ATOM NUMBER   7 HAS RADIAL NORMALIZATION=  1.000000
  LARGEST GAUSSIAN PRIMITIVE EXPONENT=      172.2560000000 OF TYPE -S-
 ON ATOM NUMBER   1 HAS RADIAL NORMALIZATION=  1.000000
  
 MEM1  =     5956160 MEM2  =       42875 MEMGRID=      894801
 MEMPCM=           0 MEMEFP=           0
 TOTAL MEMORY REQUIRED FOR TD-DFT ITERATIONS IS     6893837 WORDS.

 INITIAL VECTORS / MXVEC                    10 /                  500
 ITERATION #                     1
    CURRENT VECTORS    1 TO  10 (  10 VECTORS)
    STATE NUMBER   1  ENERGY =    4.706274 EV
    STATE NUMBER   2  ENERGY =    5.038619 EV
    STATE NUMBER   3  ENERGY =    5.523026 EV
    STATE NUMBER   4  ENERGY =    6.575284 EV
    STATE NUMBER   5  ENERGY =    6.835028 EV
    STATE NUMBER   6  ENERGY =    7.113134 EV
    STATE NUMBER   7  ENERGY =    7.210490 EV
    STATE NUMBER   8  ENERGY =    7.578022 EV
    STATE NUMBER   9  ENERGY =    7.879180 EV
    STATE NUMBER  10  ENERGY =    9.508715 EV
    MAX ERROR =  1.631E-01 / 1.000E-07
 ITERATION #                     2
    CURRENT VECTORS   11 TO  30 (  20 VECTORS)
    STATE NUMBER   1  ENERGY =    4.500148 EV
    STATE NUMBER   2  ENERGY =    4.702336 EV
    STATE NUMBER   3  ENERGY =    5.490275 EV
    STATE NUMBER   4  ENERGY =    5.808640 EV
    STATE NUMBER   5  ENERGY =    6.429982 EV
    STATE NUMBER   6  ENERGY =    6.594373 EV
    STATE NUMBER   7  ENERGY =    6.771660 EV
    STATE NUMBER   8  ENERGY =    6.868014 EV
    STATE NUMBER   9  ENERGY =    6.976681 EV
    STATE NUMBER  10  ENERGY =    7.533934 EV
    MAX ERROR =  7.288E-03 / 1.000E-07
 ITERATION #                     3
    CURRENT VECTORS   31 TO  50 (  20 VECTORS)
    STATE NUMBER   1  ENERGY =    4.487854 EV
    STATE NUMBER   2  ENERGY =    4.701055 EV
    STATE NUMBER   3  ENERGY =    5.488211 EV
    STATE NUMBER   4  ENERGY =    5.795197 EV
    STATE NUMBER   5  ENERGY =    6.344211 EV
    STATE NUMBER   6  ENERGY =    6.583231 EV
    STATE NUMBER   7  ENERGY =    6.763349 EV
    STATE NUMBER   8  ENERGY =    6.847674 EV
    STATE NUMBER   9  ENERGY =    6.931521 EV
    STATE NUMBER  10  ENERGY =    7.480654 EV
    MAX ERROR =  6.158E-04 / 1.000E-07
 ITERATION #                     4
    CURRENT VECTORS   51 TO  70 (  20 VECTORS)
    STATE NUMBER   1  ENERGY =    4.487686 EV
    STATE NUMBER   2  ENERGY =    4.701029 EV
    STATE NUMBER   3  ENERGY =    5.488091 EV
    STATE NUMBER   4  ENERGY =    5.794720 EV
    STATE NUMBER   5  ENERGY =    6.334933 EV
    STATE NUMBER   6  ENERGY =    6.582426 EV
    STATE NUMBER   7  ENERGY =    6.763060 EV
    STATE NUMBER   8  ENERGY =    6.845847 EV
    STATE NUMBER   9  ENERGY =    6.930421 EV
    STATE NUMBER  10  ENERGY =    7.480205 EV
    MAX ERROR =  2.014E-05 / 1.000E-07
 ITERATION #                     5
    CURRENT VECTORS   71 TO  88 (  18 VECTORS)
    STATE NUMBER   1  ENERGY =    4.487683 EV
    STATE NUMBER   2  ENERGY =    4.701029 EV
    STATE NUMBER   3  ENERGY =    5.488088 EV
    STATE NUMBER   4  ENERGY =    5.794708 EV
    STATE NUMBER   5  ENERGY =    6.334658 EV
    STATE NUMBER   6  ENERGY =    6.582401 EV
    STATE NUMBER   7  ENERGY =    6.763045 EV
    STATE NUMBER   8  ENERGY =    6.845774 EV
    STATE NUMBER   9  ENERGY =    6.930371 EV
    STATE NUMBER  10  ENERGY =    7.480177 EV
    MAX ERROR =  1.110E-06 / 1.000E-07
 ITERATION #                     6
    CURRENT VECTORS   89 TO 102 (  14 VECTORS)
    STATE NUMBER   1  ENERGY =    4.487683 EV
    STATE NUMBER   2  ENERGY =    4.701029 EV
    STATE NUMBER   3  ENERGY =    5.488088 EV
    STATE NUMBER   4  ENERGY =    5.794707 EV
    STATE NUMBER   5  ENERGY =    6.334648 EV
    STATE NUMBER   6  ENERGY =    6.582400 EV
    STATE NUMBER   7  ENERGY =    6.763044 EV
    STATE NUMBER   8  ENERGY =    6.845771 EV
    STATE NUMBER   9  ENERGY =    6.930368 EV
    STATE NUMBER  10  ENERGY =    7.480175 EV
    MAX ERROR =  1.042E-07 / 1.000E-07
 ITERATION #                     7
    CURRENT VECTORS  103 TO 104 (   2 VECTORS)
    STATE NUMBER   1  ENERGY =    4.487683 EV
    STATE NUMBER   2  ENERGY =    4.701029 EV
    STATE NUMBER   3  ENERGY =    5.488088 EV
    STATE NUMBER   4  ENERGY =    5.794707 EV
    STATE NUMBER   5  ENERGY =    6.334647 EV
    STATE NUMBER   6  ENERGY =    6.582400 EV
    STATE NUMBER   7  ENERGY =    6.763044 EV
    STATE NUMBER   8  ENERGY =    6.845770 EV
    STATE NUMBER   9  ENERGY =    6.930368 EV
    STATE NUMBER  10  ENERGY =    7.480175 EV
    MAX ERROR =  4.298E-08 / 1.000E-07
  
   ---------------------------------  
     R-TDDFT CALCULATION CONVERGED
   ---------------------------------  
 NUMBER OF USED VECTORS / MAX = 104 / 500
 NUMBER OF ITERATIONS   / MAX =   7 / 100
 NUMBER OF SINGLE EXCITATIONS =  2625
 NUMBER OF ATOMIC ORBITALS    = 110
 NUMBER OF ELECTRONS          =          70.0049871

          -------------------
          SINGLET EXCITATIONS
          -------------------

 STATE #   1  ENERGY =    4.487683 EV
 OSCILLATOR STRENGTH =    0.672235
 LAMBDA DIAGNOSTIC   =    0.864 (RYDBERG/CHARGE TRANSFER CHARACTER)
 SYMMETRY OF STATE   =    A   
                 EXCITATION  DE-EXCITATION
     OCC     VIR  AMPLITUDE      AMPLITUDE
      I       A     X(I->A)        Y(A->I)
     ---     ---   --------       --------
     34      36   -0.106537      -0.006257
     35      36   -0.971165       0.109449
     34      37    0.110045       0.021695
     35      37   -0.194968      -0.006088

 STATE #   2  ENERGY =    4.701029 EV
 OSCILLATOR STRENGTH =    0.035809
 LAMBDA DIAGNOSTIC   =    0.556 (RYDBERG/CHARGE TRANSFER CHARACTER)
 SYMMETRY OF STATE   =    A   
                 EXCITATION  DE-EXCITATION
     OCC     VIR  AMPLITUDE      AMPLITUDE
      I       A     X(I->A)        Y(A->I)
     ---     ---   --------       --------
     34      36    0.749497       0.003606
     35      36   -0.209264       0.028787
     32      37    0.060019       0.010237
     35      37    0.624236       0.015172
     34      39    0.034794       0.001533

 STATE #   3  ENERGY =    5.488088 EV
 OSCILLATOR STRENGTH =    0.000000
 LAMBDA DIAGNOSTIC   =    0.791 (RYDBERG/CHARGE TRANSFER CHARACTER)
 SYMMETRY OF STATE   =    A   
                 EXCITATION  DE-EXCITATION
     OCC     VIR  AMPLITUDE      AMPLITUDE
      I       A     X(I->A)        Y(A->I)
     ---     ---   --------       --------
     33      36   -0.790239       0.008827
     32      38    0.041198      -0.002757
     35      38    0.608036       0.017647
     33      39   -0.061915      -0.007192

 STATE #   4  ENERGY =    5.794707 EV
 OSCILLATOR STRENGTH =    0.221315
 LAMBDA DIAGNOSTIC   =    0.550 (RYDBERG/CHARGE TRANSFER CHARACTER)
 SYMMETRY OF STATE   =    A   
                 EXCITATION  DE-EXCITATION
     OCC     VIR  AMPLITUDE      AMPLITUDE
      I       A     X(I->A)        Y(A->I)
     ---     ---   --------       --------
     34      36    0.632713      -0.071977
     35      36    0.075791      -0.014289
     32      37    0.161256       0.040163
     34      37   -0.046713      -0.001984
     35      37   -0.741140       0.071185
     33      38   -0.033440      -0.002986
     34      39   -0.132257      -0.039700

 STATE #   5  ENERGY =    6.334647 EV
 OSCILLATOR STRENGTH =    0.000000
 LAMBDA DIAGNOSTIC   =    0.742 (RYDBERG/CHARGE TRANSFER CHARACTER)
 SYMMETRY OF STATE   =    A   
                 EXCITATION  DE-EXCITATION
     OCC     VIR  AMPLITUDE      AMPLITUDE
      I       A     X(I->A)        Y(A->I)
     ---     ---   --------       --------
     28      36   -0.052260      -0.000212
     33      36    0.572127      -0.080090
     33      37    0.298611       0.002768
     32      38    0.110888       0.023263
     34      38   -0.075365      -0.000314
     35      38    0.744288      -0.075363
     33      39    0.068465       0.020825
     25      41    0.034995       0.012057
     26      52    0.033108       0.016048

 STATE #   6  ENERGY =    6.582400 EV
 OSCILLATOR STRENGTH =    0.000000
 LAMBDA DIAGNOSTIC   =    0.426 (RYDBERG/CHARGE TRANSFER CHARACTER)
 SYMMETRY OF STATE   =    A   
                 EXCITATION  DE-EXCITATION
     OCC     VIR  AMPLITUDE      AMPLITUDE
      I       A     X(I->A)        Y(A->I)
     ---     ---   --------       --------
     33      36   -0.126143       0.019971
     33      37    0.803524      -0.005810
     34      38    0.557221       0.001130
     35      38   -0.160350       0.019281

 STATE #   7  ENERGY =    6.763044 EV
 OSCILLATOR STRENGTH =    0.085137
 LAMBDA DIAGNOSTIC   =    0.876 (RYDBERG/CHARGE TRANSFER CHARACTER)
 SYMMETRY OF STATE   =    A   
                 EXCITATION  DE-EXCITATION
     OCC     VIR  AMPLITUDE      AMPLITUDE
      I       A     X(I->A)        Y(A->I)
     ---     ---   --------       --------
     32      36   -0.843579       0.012081
     35      36    0.052033      -0.015261
     34      37    0.423375      -0.035325
     33      38   -0.094279      -0.012039
     32      39   -0.030072      -0.004022
     35      39    0.302239       0.015633
     33      45   -0.051674      -0.011839

 STATE #   8  ENERGY =    6.845770 EV
 OSCILLATOR STRENGTH =    0.000000
 LAMBDA DIAGNOSTIC   =    0.434 (RYDBERG/CHARGE TRANSFER CHARACTER)
 SYMMETRY OF STATE   =    A   
                 EXCITATION  DE-EXCITATION
     OCC     VIR  AMPLITUDE      AMPLITUDE
      I       A     X(I->A)        Y(A->I)
     ---     ---   --------       --------
     33      36    0.135451      -0.023236
     28      37   -0.096254      -0.023580
     33      37   -0.509525       0.013846
     32      38    0.034687       0.005475
     34      38    0.821551      -0.014676
     35      38    0.174353      -0.023385
     34      45    0.046840       0.019571

 STATE #   9  ENERGY =    6.930368 EV
 OSCILLATOR STRENGTH =    0.450278
 LAMBDA DIAGNOSTIC   =    0.907 (RYDBERG/CHARGE TRANSFER CHARACTER)
 SYMMETRY OF STATE   =    A   
                 EXCITATION  DE-EXCITATION
     OCC     VIR  AMPLITUDE      AMPLITUDE
      I       A     X(I->A)        Y(A->I)
     ---     ---   --------       --------
     32      36    0.283032      -0.005842
     34      36    0.039776      -0.008361
     35      36    0.102136      -0.045240
     34      37    0.841587      -0.083389
     28      38   -0.097685      -0.019100
     33      38    0.254412       0.001394
     32      39   -0.047955      -0.014041
     35      39   -0.345406      -0.009699
     30      52   -0.032136      -0.012946
     25      53   -0.032266      -0.014978

 STATE #  10  ENERGY =    7.480175 EV
 OSCILLATOR STRENGTH =    0.031899
 LAMBDA DIAGNOSTIC   =    0.903 (RYDBERG/CHARGE TRANSFER CHARACTER)
 SYMMETRY OF STATE   =    A   
                 EXCITATION  DE-EXCITATION
     OCC     VIR  AMPLITUDE      AMPLITUDE
      I       A     X(I->A)        Y(A->I)
     ---     ---   --------       --------
     32      36   -0.114674      -0.000422
     32      37   -0.043085      -0.000571
     33      38   -0.783260       0.016720
     35      39   -0.605089      -0.001492
     33      45    0.035439       0.002559

                          SUMMARY OF TDDFT RESULTS

   STATE             ENERGY     EXCITATION  TRANSITION DIPOLE, A.U.  OSCILLATOR
   0 ->             HARTREE          EV         X       Y       Z     STRENGTH
   0  A         -384.6644424154    0.000
   1  A         -384.4995230922    4.488     2.4722  0.0498  0.0000    0.6722
   2  A         -384.4916827777    4.701     0.5530 -0.0712  0.0000    0.0358
   3  A         -384.4627588677    5.488     0.0000 -0.0000 -0.0000    0.0000
   4  A         -384.4514908317    5.795    -0.8258 -0.9365  0.0000    0.2213
   5  A         -384.4316484072    6.335     0.0000  0.0000  0.0000    0.0000
   6  A         -384.4225436665    6.582     0.0000  0.0000 -0.0000    0.0000
   7  A         -384.4159050966    6.763    -0.7146 -0.0569  0.0000    0.0851
   8  A         -384.4128649764    6.846     0.0000  0.0000 -0.0000    0.0000
   9  A         -384.4097560756    6.930    -1.6257  0.0950  0.0000    0.4503
  10  A         -384.3895510347    7.480     0.3890  0.1508  0.0000    0.0319
  
 TRANSITION        EXCITATION            TRANSITION DIPOLE, A.U.     OSCILLATOR
                       EV              X       Y       Z       DIP    STRENGTH

  1  ->  2           0.213          0.0000 -0.0000  0.0000   0.0000    0.0000
  1  ->  3           1.000         -6.0090 -0.1122  0.0000   6.0100    0.8853
  1  ->  4           1.307          0.0000 -0.0000  0.0000   0.0000    0.0000
  1  ->  5           1.847         -0.5012 -0.2236 -0.0000   0.5488    0.0136
  1  ->  6           2.095          0.5986  0.2032 -0.0000   0.6322    0.0205
  1  ->  7           2.275          0.0000 -0.0000 -0.0000   0.0000    0.0000
  1  ->  8           2.358         -0.9013 -0.0392  0.0000   0.9021    0.0470
  1  ->  9           2.443          0.0000  0.0000 -0.0000   0.0000    0.0000
  1  -> 10           2.992         -0.0000  0.0000 -0.0000   0.0000    0.0000
  2  ->  3           0.787         -1.3849 -0.2096  0.0000   1.4007    0.0378
  2  ->  4           1.094          0.0000  0.0000  0.0000   0.0000    0.0000
  2  ->  5           1.634         -1.1577  0.8678 -0.0000   1.4468    0.0838
  2  ->  6           1.881         -0.1887 -0.1756  0.0000   0.2577    0.0031
  2  ->  7           2.062         -0.0000  0.0000  0.0000   0.0000    0.0000
  2  ->  8           2.145          3.7672  0.3129  0.0000   3.7802    0.7509
  2  ->  9           2.229          0.0000 -0.0000 -0.0000   0.0000    0.0000
  2  -> 10           2.779         -0.0000 -0.0000 -0.0000   0.0000    0.0000
  3  ->  4           0.307          0.5836 -0.7973  0.0000   0.9880    0.0073
  3  ->  5           0.847         -0.0000  0.0000  0.0000   0.0000    0.0000
  3  ->  6           1.094          0.0000  0.0000 -0.0000   0.0000    0.0000
  3  ->  7           1.275          2.7695 -0.0817  0.0000   2.7707    0.2398
  3  ->  8           1.358          0.0000  0.0000 -0.0000   0.0000    0.0000
  3  ->  9           1.442         -0.9306 -0.0652  0.0000   0.9329    0.0307
  3  -> 10           1.992          6.0449 -0.0152  0.0000   6.0450    1.7834
  4  ->  5           0.540          1.0113 -0.1532 -0.0000   1.0229    0.0138
  4  ->  6           0.788          4.9317 -0.0542 -0.0000   4.9320    0.4694
  4  ->  7           0.968         -0.0000 -0.0000 -0.0000   0.0000    0.0000
  4  ->  8           1.051          0.7435 -0.0423 -0.0000   0.7447    0.0143
  4  ->  9           1.136          0.0000  0.0000 -0.0000   0.0000    0.0000
  4  -> 10           1.685         -0.0000 -0.0000  0.0000   0.0000    0.0000
  5  ->  6           0.248         -0.0000  0.0000  0.0000   0.0000    0.0000
  5  ->  7           0.428         -3.1620  0.2152 -0.0000   3.1693    0.1054
  5  ->  8           0.511         -0.0000  0.0000 -0.0000   0.0000    0.0000
  5  ->  9           0.596          1.7960  0.1682 -0.0000   1.8038    0.0475
  5  -> 10           1.146          1.9820 -0.2619 -0.0000   1.9993    0.1122
  6  ->  7           0.181          0.7589  0.4566  0.0000   0.8856    0.0035
  6  ->  8           0.263         -0.0000 -0.0000 -0.0000   0.0000    0.0000
  6  ->  9           0.348         -0.2394  1.4846  0.0000   1.5038    0.0193
  6  -> 10           0.898         -0.5420 -0.9410  0.0000   1.0860    0.0259
  7  ->  8           0.083         -0.5888  0.1003  0.0000   0.5972    0.0007
  7  ->  9           0.167          0.0000 -0.0000  0.0000   0.0000    0.0000
  7  -> 10           0.717          0.0000  0.0000  0.0000   0.0000    0.0000
  8  ->  9           0.085          0.6545  0.4827  0.0000   0.8132    0.0014
  8  -> 10           0.634          0.6919 -0.2185  0.0000   0.7256    0.0082
  9  -> 10           0.550         -0.0000 -0.0000  0.0000   0.0000    0.0000

 SELECTING EXCITED STATE IROOT=   1 AT E=     -384.4995230922
 AS THE STATE OF INTEREST.

 ..... DONE WITH TD-DFT EXCITATION ENERGIES .....
 CPU     0: STEP CPU TIME=   177.36 TOTAL CPU TIME=      213.0 (    3.6 MIN)
 TOTAL WALL CLOCK TIME=      282.9 SECONDS, CPU UTILIZATION IS  75.29%

 AN AIMPAC INPUT FILE IS BEING WRITTEN TO FILE   7

              6914504  WORDS OF DYNAMIC MEMORY USED
 EXECUTION OF GAMESS TERMINATED NORMALLY Thu Aug 10 21:43:12 2017
 DDI: 263640 bytes (0.3 MB / 0 MWords) used by master data server.

 ----------------------------------------
 CPU timing information for all processes
 ========================================
 0: 212.272 + 0.752 = 213.24
 1: 219.660 + 0.744 = 220.404
 2: 206.944 + 0.536 = 207.480
 3: 211.412 + 0.684 = 212.96
 ----------------------------------------
 ddikick.x: exited gracefully.
----- accounting info -----
Files used on the master node firzens were:
-rw-r--r-- 1 sagar sagar     1463 Aug 10 21:38 /scr/sagar/dvb_td.F05
-rw-rw-r-- 1 sagar sagar 19441728 Aug 10 21:38 /scr/sagar/dvb_td.F08
-rw-rw-r-- 1 sagar sagar 17281536 Aug 10 21:38 /scr/sagar/dvb_td.F08.001
-rw-rw-r-- 1 sagar sagar 15841408 Aug 10 21:38 /scr/sagar/dvb_td.F08.002
-rw-rw-r-- 1 sagar sagar 16741488 Aug 10 21:38 /scr/sagar/dvb_td.F08.003
-rw-rw-r-- 1 sagar sagar  2454000 Aug 10 21:43 /scr/sagar/dvb_td.F10
-rw-rw-r-- 1 sagar sagar  3486600 Aug 10 21:39 /scr/sagar/dvb_td.F22
-rw-rw-r-- 1 sagar sagar  3486600 Aug 10 21:39 /scr/sagar/dvb_td.F22.001
-rw-rw-r-- 1 sagar sagar  3486600 Aug 10 21:39 /scr/sagar/dvb_td.F22.002
-rw-rw-r-- 1 sagar sagar  3486600 Aug 10 21:39 /scr/sagar/dvb_td.F22.003
Thu Aug 10 21:43:15 IST 2017
0.120u 0.044s 4:46.21 0.0%	0+0k 8+16io 0pf+0w
