[Molden Format]
[Title]
dvb_sp
[Atoms] Angs
C      1  6     1.414166    -0.236806     0.000000
C      2  6    -1.414166     0.236806     0.000000
C      3  6     0.489011    -1.316751     0.000000
C      4  6    -0.489011     1.316751     0.000000
C      5  6    -0.894476    -1.086798     0.000000
C      6  6     0.894476     1.086798     0.000000
H      7  1     0.868634    -2.347802     0.000000
H      8  1    -0.868634     2.347802     0.000000
H      9  1    -1.586939    -1.937642     0.000000
H     10  1     1.586939     1.937642     0.000000
C     11  6    -2.882128     0.534508     0.000000
C     12  6     2.882128    -0.534508     0.000000
H     13  1    -3.132893     1.606558     0.000000
H     14  1     3.132893    -1.606558     0.000000
C     15  6    -3.881779    -0.364193     0.000000
C     16  6     3.881779     0.364193     0.000000
H     17  1    -3.701442    -1.445229     0.000000
H     18  1     3.701442     1.445229     0.000000
H     19  1    -4.931922    -0.048154     0.000000
H     20  1     4.931922     0.048154     0.000000
[GTO]
  1 0
s     3 1.00
   7.161684e+01    1.543290e-01
   1.304510e+01    5.353281e-01
   3.530512e+00    4.446345e-01
s     3 1.00
   2.941249e+00   -9.996723e-02
   6.834831e-01    3.995128e-01
   2.222899e-01    7.001155e-01
p     3 1.00
   2.941249e+00    1.559163e-01
   6.834831e-01    6.076837e-01
   2.222899e-01    3.919574e-01

  2 0
s     3 1.00
   7.161684e+01    1.543290e-01
   1.304510e+01    5.353281e-01
   3.530512e+00    4.446345e-01
s     3 1.00
   2.941249e+00   -9.996723e-02
   6.834831e-01    3.995128e-01
   2.222899e-01    7.001155e-01
p     3 1.00
   2.941249e+00    1.559163e-01
   6.834831e-01    6.076837e-01
   2.222899e-01    3.919574e-01

  3 0
s     3 1.00
   7.161684e+01    1.543290e-01
   1.304510e+01    5.353281e-01
   3.530512e+00    4.446345e-01
s     3 1.00
   2.941249e+00   -9.996723e-02
   6.834831e-01    3.995128e-01
   2.222899e-01    7.001155e-01
p     3 1.00
   2.941249e+00    1.559163e-01
   6.834831e-01    6.076837e-01
   2.222899e-01    3.919574e-01

  4 0
s     3 1.00
   7.161684e+01    1.543290e-01
   1.304510e+01    5.353281e-01
   3.530512e+00    4.446345e-01
s     3 1.00
   2.941249e+00   -9.996723e-02
   6.834831e-01    3.995128e-01
   2.222899e-01    7.001155e-01
p     3 1.00
   2.941249e+00    1.559163e-01
   6.834831e-01    6.076837e-01
   2.222899e-01    3.919574e-01

  5 0
s     3 1.00
   7.161684e+01    1.543290e-01
   1.304510e+01    5.353281e-01
   3.530512e+00    4.446345e-01
s     3 1.00
   2.941249e+00   -9.996723e-02
   6.834831e-01    3.995128e-01
   2.222899e-01    7.001155e-01
p     3 1.00
   2.941249e+00    1.559163e-01
   6.834831e-01    6.076837e-01
   2.222899e-01    3.919574e-01

  6 0
s     3 1.00
   7.161684e+01    1.543290e-01
   1.304510e+01    5.353281e-01
   3.530512e+00    4.446345e-01
s     3 1.00
   2.941249e+00   -9.996723e-02
   6.834831e-01    3.995128e-01
   2.222899e-01    7.001155e-01
p     3 1.00
   2.941249e+00    1.559163e-01
   6.834831e-01    6.076837e-01
   2.222899e-01    3.919574e-01

  7 0
s     3 1.00
   3.425251e+00    1.543290e-01
   6.239137e-01    5.353281e-01
   1.688554e-01    4.446345e-01

  8 0
s     3 1.00
   3.425251e+00    1.543290e-01
   6.239137e-01    5.353281e-01
   1.688554e-01    4.446345e-01

  9 0
s     3 1.00
   3.425251e+00    1.543290e-01
   6.239137e-01    5.353281e-01
   1.688554e-01    4.446345e-01

 10 0
s     3 1.00
   3.425251e+00    1.543290e-01
   6.239137e-01    5.353281e-01
   1.688554e-01    4.446345e-01

 11 0
s     3 1.00
   7.161684e+01    1.543290e-01
   1.304510e+01    5.353281e-01
   3.530512e+00    4.446345e-01
s     3 1.00
   2.941249e+00   -9.996723e-02
   6.834831e-01    3.995128e-01
   2.222899e-01    7.001155e-01
p     3 1.00
   2.941249e+00    1.559163e-01
   6.834831e-01    6.076837e-01
   2.222899e-01    3.919574e-01

 12 0
s     3 1.00
   7.161684e+01    1.543290e-01
   1.304510e+01    5.353281e-01
   3.530512e+00    4.446345e-01
s     3 1.00
   2.941249e+00   -9.996723e-02
   6.834831e-01    3.995128e-01
   2.222899e-01    7.001155e-01
p     3 1.00
   2.941249e+00    1.559163e-01
   6.834831e-01    6.076837e-01
   2.222899e-01    3.919574e-01

 13 0
s     3 1.00
   3.425251e+00    1.543290e-01
   6.239137e-01    5.353281e-01
   1.688554e-01    4.446345e-01

 14 0
s     3 1.00
   3.425251e+00    1.543290e-01
   6.239137e-01    5.353281e-01
   1.688554e-01    4.446345e-01

 15 0
s     3 1.00
   7.161684e+01    1.543290e-01
   1.304510e+01    5.353281e-01
   3.530512e+00    4.446345e-01
s     3 1.00
   2.941249e+00   -9.996723e-02
   6.834831e-01    3.995128e-01
   2.222899e-01    7.001155e-01
p     3 1.00
   2.941249e+00    1.559163e-01
   6.834831e-01    6.076837e-01
   2.222899e-01    3.919574e-01

 16 0
s     3 1.00
   7.161684e+01    1.543290e-01
   1.304510e+01    5.353281e-01
   3.530512e+00    4.446345e-01
s     3 1.00
   2.941249e+00   -9.996723e-02
   6.834831e-01    3.995128e-01
   2.222899e-01    7.001155e-01
p     3 1.00
   2.941249e+00    1.559163e-01
   6.834831e-01    6.076837e-01
   2.222899e-01    3.919574e-01

 17 0
s     3 1.00
   3.425251e+00    1.543290e-01
   6.239137e-01    5.353281e-01
   1.688554e-01    4.446345e-01

 18 0
s     3 1.00
   3.425251e+00    1.543290e-01
   6.239137e-01    5.353281e-01
   1.688554e-01    4.446345e-01

 19 0
s     3 1.00
   3.425251e+00    1.543290e-01
   6.239137e-01    5.353281e-01
   1.688554e-01    4.446345e-01

 20 0
s     3 1.00
   3.425251e+00    1.543290e-01
   6.239137e-01    5.353281e-01
   1.688554e-01    4.446345e-01

[MO]
 Sym= Bu
 Ene=   -10.0162
 Spin= Alpha
 Occup=   2.000000
   1    0.699297
   2    0.031568
   3   -0.000908
   4    0.000020
   5    0.000000
   6   -0.699297
   7   -0.031568
   8   -0.000908
   9    0.000020
  10    0.000000
  11   -0.018918
  12   -0.007746
  13   -0.002628
  14   -0.003534
  15    0.000000
  16    0.018918
  17    0.007746
  18   -0.002628
  19   -0.003534
  20    0.000000
  21    0.019228
  22    0.007710
  23   -0.001323
  24    0.004169
  25    0.000000
  26   -0.019228
  27   -0.007710
  28   -0.001323
  29    0.004169
  30    0.000000
  31    0.000336
  32   -0.000336
  33   -0.000334
  34    0.000334
  35    0.027053
  36    0.006710
  37    0.003973
  38   -0.000905
  39    0.000000
  40   -0.027053
  41   -0.006710
  42    0.003973
  43   -0.000905
  44    0.000000
  45   -0.000323
  46    0.000323
  47   -0.000179
  48   -0.000471
  49   -0.000281
  50    0.000007
  51    0.000000
  52    0.000179
  53    0.000471
  54   -0.000281
  55    0.000007
  56    0.000000
  57    0.000149
  58   -0.000149
  59    0.000028
  60   -0.000028
 Sym= Ag
 Ene=   -10.0162
 Spin= Alpha
 Occup=   2.000000
   1    0.699293
   2    0.031360
   3   -0.000632
   4   -0.000032
   5    0.000000
   6    0.699293
   7    0.031360
   8    0.000632
   9    0.000032
  10    0.000000
  11   -0.019390
  12   -0.006930
  13   -0.002997
  14   -0.003322
  15    0.000000
  16   -0.019390
  17   -0.006930
  18    0.002997
  19    0.003322
  20    0.000000
  21   -0.019558
  22   -0.006873
  23    0.001753
  24   -0.004069
  25    0.000000
  26   -0.019558
  27   -0.006873
  28   -0.001753
  29    0.004069
  30    0.000000
  31    0.000223
  32    0.000223
  33    0.000223
  34    0.000223
  35   -0.027417
  36   -0.006779
  37   -0.004012
  38    0.000913
  39    0.000000
  40   -0.027417
  41   -0.006779
  42    0.004012
  43   -0.000913
  44    0.000000
  45    0.000334
  46    0.000334
  47    0.000193
  48    0.000474
  49    0.000288
  50   -0.000006
  51    0.000000
  52    0.000193
  53    0.000474
  54   -0.000288
  55    0.000006
  56    0.000000
  57   -0.000141
  58   -0.000141
  59   -0.000027
  60   -0.000027
 Sym= Bu
 Ene=   -10.0039
 Spin= Alpha
 Occup=   2.000000
   1   -0.027509
   2    0.004099
   3    0.004163
   4   -0.000669
   5   -0.000000
   6    0.027509
   7   -0.004099
   8    0.004163
   9   -0.000669
  10   -0.000000
  11    0.011741
  12    0.000679
  13   -0.000019
  14    0.000133
  15   -0.000000
  16   -0.011741
  17   -0.000679
  18   -0.000019
  19    0.000133
  20   -0.000000
  21   -0.009600
  22   -0.000548
  23   -0.000096
  24   -0.000129
  25   -0.000000
  26    0.009600
  27    0.000548
  28   -0.000096
  29   -0.000129
  30   -0.000000
  31   -0.000102
  32    0.000102
  33   -0.000044
  34    0.000044
  35    0.699777
  36    0.030786
  37   -0.001086
  38   -0.000751
  39   -0.000000
  40   -0.699777
  41   -0.030786
  42   -0.001086
  43   -0.000751
  44   -0.000000
  45   -0.006419
  46    0.006419
  47   -0.008121
  48   -0.007619
  49   -0.003442
  50   -0.003046
  51   -0.000000
  52    0.008121
  53    0.007619
  54   -0.003442
  55   -0.003046
  56   -0.000000
  57    0.000186
  58   -0.000186
  59    0.000217
  60   -0.000217
 Sym= Ag
 Ene=   -10.0039
 Spin= Alpha
 Occup=   2.000000
   1    0.027742
   2   -0.004056
   3   -0.004131
   4    0.000654
   5    0.000000
   6    0.027742
   7   -0.004056
   8    0.004131
   9   -0.000654
  10    0.000000
  11   -0.014708
  12   -0.000684
  13   -0.000063
  14   -0.000189
  15    0.000000
  16   -0.014708
  17   -0.000684
  18    0.000063
  19    0.000189
  20    0.000000
  21   -0.011003
  22   -0.000421
  23    0.000006
  24   -0.000211
  25    0.000000
  26   -0.011003
  27   -0.000421
  28   -0.000006
  29    0.000211
  30    0.000000
  31    0.000108
  32    0.000108
  33   -0.000058
  34   -0.000058
  35    0.699692
  36    0.030768
  37   -0.001096
  38   -0.000749
  39    0.000000
  40    0.699692
  41    0.030768
  42    0.001096
  43    0.000749
  44    0.000000
  45   -0.006417
  46   -0.006417
  47   -0.008114
  48   -0.007617
  49   -0.003441
  50   -0.003046
  51    0.000000
  52   -0.008114
  53   -0.007617
  54    0.003441
  55    0.003046
  56    0.000000
  57    0.000187
  58    0.000187
  59    0.000217
  60    0.000217
 Sym= Ag
 Ene=   -10.0029
 Spin= Alpha
 Occup=   2.000000
   1    0.003166
   2   -0.000783
   3   -0.000548
   4   -0.005256
   5    0.000000
   6    0.003166
   7   -0.000783
   8    0.000548
   9    0.005256
  10    0.000000
  11   -0.439511
  12   -0.024454
  13    0.003664
  14   -0.001021
  15    0.000000
  16   -0.439511
  17   -0.024454
  18   -0.003664
  19    0.001021
  20    0.000000
  21    0.544803
  22    0.028105
  23    0.003239
  24   -0.000074
  25    0.000000
  26    0.544803
  27    0.028105
  28   -0.003239
  29    0.000074
  30    0.000000
  31    0.004065
  32    0.004065
  33   -0.005044
  34   -0.005044
  35   -0.000803
  36   -0.000042
  37   -0.000034
  38   -0.000108
  39    0.000000
  40   -0.000803
  41   -0.000042
  42    0.000034
  43    0.000108
  44    0.000000
  45   -0.000004
  46   -0.000004
  47   -0.000287
  48   -0.000050
  49   -0.000009
  50    0.000034
  51    0.000000
  52   -0.000287
  53   -0.000050
  54    0.000009
  55   -0.000034
  56    0.000000
  57    0.000155
  58    0.000155
  59   -0.000004
  60   -0.000004
 Sym= Bu
 Ene=   -10.0029
 Spin= Alpha
 Occup=   2.000000
   1   -0.028758
   2    0.008159
   3   -0.003084
   4    0.001209
   5    0.000000
   6    0.028758
   7   -0.008159
   8   -0.003084
   9    0.001209
  10    0.000000
  11   -0.426778
  12   -0.024161
  13    0.003842
  14   -0.001148
  15    0.000000
  16    0.426778
  17    0.024161
  18    0.003842
  19   -0.001148
  20    0.000000
  21    0.553990
  22    0.028596
  23    0.003353
  24    0.000089
  25    0.000000
  26   -0.553990
  27   -0.028596
  28    0.003353
  29    0.000089
  30    0.000000
  31    0.003998
  32   -0.003998
  33   -0.005138
  34    0.005138
  35    0.013734
  36    0.000730
  37   -0.000053
  38   -0.000055
  39    0.000000
  40   -0.013734
  41   -0.000730
  42   -0.000053
  43   -0.000055
  44    0.000000
  45   -0.000181
  46    0.000181
  47   -0.000934
  48   -0.000278
  49   -0.000142
  50   -0.000027
  51    0.000000
  52    0.000934
  53    0.000278
  54   -0.000142
  55   -0.000027
  56    0.000000
  57    0.000154
  58   -0.000154
  59   -0.000008
  60    0.000008
 Sym= Bu
 Ene=   -10.0022
 Spin= Alpha
 Occup=   2.000000
   1    0.003560
   2   -0.001066
   3    0.001265
   4    0.005009
   5    0.000000
   6   -0.003560
   7    0.001066
   8    0.001265
   9    0.005009
  10    0.000000
  11    0.554967
  12    0.020487
  13    0.002240
  14    0.000232
  15    0.000000
  16   -0.554967
  17   -0.020487
  18    0.002240
  19    0.000232
  20    0.000000
  21    0.428085
  22    0.013668
  23   -0.002996
  24    0.000949
  25    0.000000
  26   -0.428085
  27   -0.013668
  28   -0.002996
  29    0.000949
  30    0.000000
  31   -0.004891
  32    0.004891
  33   -0.003729
  34    0.003729
  35   -0.003323
  36   -0.000172
  37    0.000024
  38   -0.000008
  39    0.000000
  40    0.003323
  41    0.000172
  42    0.000024
  43   -0.000008
  44    0.000000
  45    0.000053
  46   -0.000053
  47   -0.000216
  48    0.000026
  49    0.000010
  50    0.000052
  51    0.000000
  52    0.000216
  53   -0.000026
  54    0.000010
  55    0.000052
  56    0.000000
  57    0.000092
  58   -0.000092
  59   -0.000010
  60    0.000010
 Sym= Ag
 Ene=   -10.0021
 Spin= Alpha
 Occup=   2.000000
   1    0.029517
   2   -0.007496
   3    0.003077
   4    0.000037
   5    0.000000
   6    0.029517
   7   -0.007496
   8   -0.003077
   9   -0.000037
  10    0.000000
  11    0.544913
  12    0.019817
  13    0.002347
  14   -0.000135
  15    0.000000
  16    0.544913
  17    0.019817
  18   -0.002347
  19    0.000135
  20    0.000000
  21    0.439745
  22    0.014227
  23   -0.003009
  24    0.000671
  25    0.000000
  26    0.439745
  27    0.014227
  28    0.003009
  29   -0.000671
  30    0.000000
  31   -0.004968
  32   -0.004968
  33   -0.004017
  34   -0.004017
  35    0.017295
  36    0.000752
  37   -0.000187
  38   -0.000024
  39    0.000000
  40    0.017295
  41    0.000752
  42    0.000187
  43    0.000024
  44    0.000000
  45   -0.000252
  46   -0.000252
  47   -0.001150
  48   -0.000326
  49   -0.000184
  50   -0.000053
  51    0.000000
  52   -0.001150
  53   -0.000326
  54    0.000184
  55    0.000053
  56    0.000000
  57    0.000098
  58    0.000098
  59   -0.000011
  60   -0.000011
 Sym= Bu
 Ene=    -9.9882
 Spin= Alpha
 Occup=   2.000000
   1   -0.000176
   2   -0.000159
   3   -0.000049
   4   -0.000023
   5    0.000000
   6    0.000176
   7    0.000159
   8   -0.000049
   9   -0.000023
  10    0.000000
  11   -0.000276
  12    0.000003
  13    0.000081
  14    0.000006
  15    0.000000
  16    0.000276
  17   -0.000003
  18    0.000081
  19    0.000006
  20    0.000000
  21    0.000786
  22   -0.000016
  23    0.000106
  24   -0.000007
  25    0.000000
  26   -0.000786
  27    0.000016
  28    0.000106
  29   -0.000007
  30    0.000000
  31    0.000012
  32   -0.000012
  33    0.000103
  34   -0.000103
  35    0.009014
  36   -0.006894
  37    0.003378
  38    0.003084
  39    0.000000
  40   -0.009014
  41    0.006894
  42    0.003378
  43    0.003084
  44    0.000000
  45    0.000043
  46   -0.000043
  47    0.700477
  48    0.030866
  49    0.000936
  50    0.000889
  51    0.000000
  52   -0.700477
  53   -0.030866
  54    0.000936
  55    0.000889
  56    0.000000
  57   -0.006360
  58    0.006360
  59   -0.006370
  60    0.006370
 Sym= Ag
 Ene=    -9.9882
 Spin= Alpha
 Occup=   2.000000
   1    0.000177
   2    0.000158
   3    0.000048
   4    0.000024
   5    0.000000
   6    0.000177
   7    0.000158
   8   -0.000048
   9   -0.000024
  10    0.000000
  11    0.000567
  12   -0.000061
  13   -0.000027
  14   -0.000017
  15    0.000000
  16    0.000567
  17   -0.000061
  18    0.000027
  19    0.000017
  20    0.000000
  21    0.000847
  22   -0.000036
  23    0.000089
  24   -0.000003
  25    0.000000
  26    0.000847
  27   -0.000036
  28   -0.000089
  29    0.000003
  30    0.000000
  31   -0.000017
  32   -0.000017
  33    0.000104
  34    0.000104
  35    0.009018
  36   -0.006893
  37    0.003378
  38    0.003083
  39    0.000000
  40    0.009018
  41   -0.006893
  42   -0.003378
  43   -0.003083
  44    0.000000
  45    0.000043
  46    0.000043
  47    0.700477
  48    0.030865
  49    0.000935
  50    0.000889
  51    0.000000
  52    0.700477
  53    0.030865
  54   -0.000935
  55   -0.000889
  56    0.000000
  57   -0.006361
  58   -0.006361
  59   -0.006370
  60   -0.006370
 Sym= Ag
 Ene=    -0.8058
 Spin= Alpha
 Occup=   2.000000
   1   -0.107861
   2    0.274703
   3   -0.040704
   4    0.005489
   5    0.000000
   6   -0.107861
   7    0.274703
   8    0.040704
   9   -0.005489
  10    0.000000
  11   -0.097844
  12    0.247011
  13   -0.014483
  14    0.053360
  15    0.000000
  16   -0.097844
  17    0.247011
  18    0.014483
  19   -0.053360
  20    0.000000
  21   -0.097567
  22    0.246665
  23    0.031424
  24    0.045745
  25    0.000000
  26   -0.097567
  27    0.246665
  28   -0.031424
  29   -0.045745
  30    0.000000
  31    0.044964
  32    0.044964
  33    0.045206
  34    0.045206
  35   -0.049735
  36    0.127849
  37    0.028454
  38   -0.012900
  39    0.000000
  40   -0.049735
  41    0.127849
  42   -0.028454
  43    0.012900
  44    0.000000
  45    0.025622
  46    0.025622
  47   -0.024681
  48    0.062713
  49    0.020362
  50    0.012403
  51    0.000000
  52   -0.024681
  53    0.062713
  54   -0.020362
  55   -0.012403
  56    0.000000
  57    0.014138
  58    0.014138
  59    0.010592
  60    0.010592
 Sym= Bu
 Ene=    -0.7503
 Spin= Alpha
 Occup=   2.000000
   1    0.103546
   2   -0.273769
   3   -0.032982
   4    0.004475
   5    0.000000
   6   -0.103546
   7    0.273769
   8   -0.032982
   9    0.004475
  10    0.000000
  11    0.039070
  12   -0.102242
  13   -0.058952
  14   -0.027380
  15    0.000000
  16   -0.039070
  17    0.102242
  18   -0.058952
  19   -0.027380
  20    0.000000
  21   -0.042776
  22    0.112515
  23   -0.046675
  24    0.044618
  25    0.000000
  26    0.042776
  27   -0.112515
  28   -0.046675
  29    0.044618
  30    0.000000
  31   -0.026881
  32    0.026881
  33    0.030765
  34   -0.030765
  35   -0.113821
  36    0.297172
  37    0.008511
  38   -0.034179
  39    0.000000
  40    0.113821
  41   -0.297172
  42    0.008511
  43   -0.034179
  44    0.000000
  45    0.067041
  46   -0.067041
  47   -0.080731
  48    0.209312
  49    0.049904
  50    0.037284
  51    0.000000
  52    0.080731
  53   -0.209312
  54    0.049904
  55    0.037284
  56    0.000000
  57    0.048601
  58   -0.048601
  59    0.043701
  60   -0.043701
 Sym= Ag
 Ene=    -0.7142
 Spin= Alpha
 Occup=   2.000000
   1   -0.004511
   2    0.014784
   3    0.096150
   4   -0.010370
   5    0.000000
   6   -0.004511
   7    0.014784
   8   -0.096150
   9    0.010370
  10    0.000000
  11    0.046321
  12   -0.121487
  13    0.037039
  14   -0.016145
  15    0.000000
  16    0.046321
  17   -0.121487
  18   -0.037039
  19    0.016145
  20    0.000000
  21    0.041739
  22   -0.108975
  23   -0.047349
  24   -0.002042
  25    0.000000
  26    0.041739
  27   -0.108975
  28    0.047349
  29    0.002042
  30    0.000000
  31   -0.023357
  32   -0.023357
  33   -0.016605
  34   -0.016605
  35   -0.119231
  36    0.314787
  37   -0.057481
  38   -0.045349
  39    0.000000
  40   -0.119231
  41    0.314787
  42    0.057481
  43    0.045349
  44    0.000000
  45    0.076548
  46    0.076548
  47   -0.117463
  48    0.309752
  49    0.052789
  50    0.049071
  51    0.000000
  52   -0.117463
  53    0.309752
  54   -0.052789
  55   -0.049071
  56    0.000000
  57    0.074225
  58    0.074225
  59    0.074861
  60    0.074861
 Sym= Bu
 Ene=    -0.6963
 Spin= Alpha
 Occup=   2.000000
   1   -0.012612
   2    0.034106
   3   -0.023002
   4   -0.124975
   5    0.000000
   6    0.012612
   7   -0.034106
   8   -0.023002
   9   -0.124975
  10    0.000000
  11   -0.132327
  12    0.357132
  13   -0.056189
  14   -0.003493
  15    0.000000
  16    0.132327
  17   -0.357132
  18   -0.056189
  19   -0.003493
  20    0.000000
  21   -0.120084
  22    0.323868
  23    0.065626
  24   -0.034655
  25    0.000000
  26    0.120084
  27   -0.323868
  28    0.065626
  29   -0.034655
  30    0.000000
  31    0.098345
  32   -0.098345
  33    0.090005
  34   -0.090005
  35    0.000186
  36   -0.001239
  37   -0.018506
  38   -0.022972
  39    0.000000
  40   -0.000186
  41    0.001239
  42   -0.018506
  43   -0.022972
  44    0.000000
  45   -0.009843
  46    0.009843
  47   -0.014525
  48    0.037984
  49    0.006376
  50   -0.001565
  51    0.000000
  52    0.014525
  53   -0.037984
  54    0.006376
  55   -0.001565
  56    0.000000
  57    0.014812
  58   -0.014812
  59    0.008957
  60   -0.008957
 Sym= Bu
 Ene=    -0.6637
 Spin= Alpha
 Occup=   2.000000
   1   -0.099653
   2    0.274065
   3   -0.056212
   4    0.017821
   5    0.000000
   6    0.099653
   7   -0.274065
   8   -0.056212
   9    0.017821
  10    0.000000
  11   -0.040746
  12    0.112618
  13    0.091430
  14    0.037884
  15    0.000000
  16    0.040746
  17   -0.112618
  18    0.091430
  19    0.037884
  20    0.000000
  21    0.073320
  22   -0.202339
  23    0.046950
  24   -0.054055
  25    0.000000
  26   -0.073320
  27    0.202339
  28    0.046950
  29   -0.054055
  30    0.000000
  31    0.032174
  32   -0.032174
  33   -0.053486
  34    0.053486
  35   -0.051605
  36    0.136810
  37   -0.129048
  38   -0.039187
  39    0.000000
  40    0.051605
  41   -0.136810
  42   -0.129048
  43   -0.039187
  44    0.000000
  45    0.037636
  46   -0.037636
  47   -0.110269
  48    0.299486
  49    0.016365
  50    0.034517
  51    0.000000
  52    0.110269
  53   -0.299486
  54    0.016365
  55    0.034517
  56    0.000000
  57    0.077421
  58   -0.077421
  59    0.089986
  60   -0.089986
 Sym= Ag
 Ene=    -0.5849
 Spin= Alpha
 Occup=   2.000000
   1    0.070955
   2   -0.206311
   3   -0.072119
   4    0.121088
   5   -0.000000
   6    0.070955
   7   -0.206311
   8    0.072119
   9   -0.121088
  10   -0.000000
  11    0.003042
  12   -0.010089
  13   -0.159995
  14   -0.029901
  15   -0.000000
  16    0.003042
  17   -0.010089
  18    0.159995
  19    0.029901
  20   -0.000000
  21   -0.081917
  22    0.233823
  23    0.022858
  24   -0.065455
  25   -0.000000
  26   -0.081917
  27    0.233823
  28   -0.022858
  29    0.065455
  30   -0.000000
  31   -0.019325
  32   -0.019325
  33    0.106455
  34    0.106455
  35    0.053065
  36   -0.159628
  37   -0.129229
  38   -0.081299
  39   -0.000000
  40    0.053065
  41   -0.159628
  42    0.129229
  43    0.081299
  44   -0.000000
  45   -0.080069
  46   -0.080069
  47   -0.083701
  48    0.241372
  49   -0.038263
  50   -0.035617
  51   -0.000000
  52   -0.083701
  53    0.241372
  54    0.038263
  55    0.035617
  56   -0.000000
  57    0.103574
  58    0.103574
  59    0.097759
  60    0.097759
 Sym= Ag
 Ene=    -0.5555
 Spin= Alpha
 Occup=   2.000000
   1    0.054343
   2   -0.160849
   3   -0.063938
   4   -0.184818
   5    0.000000
   6    0.054343
   7   -0.160849
   8    0.063938
   9    0.184818
  10    0.000000
  11   -0.110447
  12    0.326006
  13    0.036492
  14   -0.081704
  15    0.000000
  16   -0.110447
  17    0.326006
  18   -0.036492
  19    0.081704
  20    0.000000
  21    0.057451
  22   -0.170678
  23    0.170422
  24   -0.086553
  25    0.000000
  26    0.057451
  27   -0.170678
  28   -0.170422
  29    0.086553
  30    0.000000
  31    0.169285
  32    0.169285
  33   -0.083805
  34   -0.083805
  35    0.007589
  36   -0.024546
  37   -0.077940
  38    0.046611
  39    0.000000
  40    0.007589
  41   -0.024546
  42    0.077940
  43   -0.046611
  44    0.000000
  45    0.032176
  46    0.032176
  47   -0.037875
  48    0.113494
  49   -0.049450
  50    0.013897
  51    0.000000
  52   -0.037875
  53    0.113494
  54    0.049450
  55   -0.013897
  56    0.000000
  57    0.022790
  58    0.022790
  59    0.067910
  60    0.067910
 Sym= Bu
 Ene=    -0.5278
 Spin= Alpha
 Occup=   2.000000
   1   -0.013040
   2    0.037106
   3   -0.134917
   4    0.053589
   5    0.000000
   6    0.013040
   7   -0.037106
   8   -0.134917
   9    0.053589
  10    0.000000
  11   -0.050674
  12    0.154479
  13    0.004818
  14    0.005252
  15    0.000000
  16    0.050674
  17   -0.154479
  18    0.004818
  19    0.005252
  20    0.000000
  21    0.030359
  22   -0.092030
  23    0.078578
  24   -0.035828
  25    0.000000
  26   -0.030359
  27    0.092030
  28    0.078578
  29   -0.035828
  30    0.000000
  31    0.050334
  32   -0.050334
  33   -0.055818
  34    0.055818
  35   -0.098852
  36    0.302749
  37    0.041050
  38    0.116047
  39    0.000000
  40    0.098852
  41   -0.302749
  42    0.041050
  43    0.116047
  44    0.000000
  45    0.170554
  46   -0.170554
  47    0.080730
  48   -0.249113
  49    0.091251
  50    0.123157
  51    0.000000
  52   -0.080730
  53    0.249113
  54    0.091251
  55    0.123157
  56    0.000000
  57   -0.160662
  58    0.160662
  59   -0.124740
  60    0.124740
 Sym= Ag
 Ene=    -0.5063
 Spin= Alpha
 Occup=   2.000000
   1   -0.054543
   2    0.162191
   3   -0.142540
   4   -0.019506
   5    0.000000
   6   -0.054543
   7    0.162191
   8    0.142540
   9    0.019506
  10    0.000000
  11    0.006947
  12   -0.025489
  13    0.087905
  14    0.184476
  15    0.000000
  16    0.006947
  17   -0.025489
  18   -0.087905
  19   -0.184476
  20    0.000000
  21    0.052242
  22   -0.166033
  23    0.037327
  24    0.201874
  25    0.000000
  26    0.052242
  27   -0.166033
  28   -0.037327
  29   -0.201874
  30    0.000000
  31   -0.099464
  32   -0.099464
  33   -0.169324
  34   -0.169324
  35    0.059119
  36   -0.180740
  37    0.001507
  38   -0.064544
  39    0.000000
  40    0.059119
  41   -0.180740
  42   -0.001507
  43    0.064544
  44    0.000000
  45   -0.112533
  46   -0.112533
  47   -0.051545
  48    0.163437
  49   -0.081648
  50   -0.079146
  51    0.000000
  52   -0.051545
  53    0.163437
  54    0.081648
  55    0.079146
  56    0.000000
  57    0.094752
  58    0.094752
  59    0.097208
  60    0.097208
 Sym= Ag
 Ene=    -0.4540
 Spin= Alpha
 Occup=   2.000000
   1    0.032282
   2   -0.106312
   3   -0.132275
   4    0.051440
   5    0.000000
   6    0.032282
   7   -0.106312
   8    0.132275
   9   -0.051440
  10    0.000000
  11    0.013355
  12   -0.051554
  13   -0.141370
  14    0.136886
  15    0.000000
  16    0.013355
  17   -0.051554
  18    0.141370
  19   -0.136886
  20    0.000000
  21   -0.019794
  22    0.056246
  23    0.135965
  24    0.084612
  25    0.000000
  26   -0.019794
  27    0.056246
  28   -0.135965
  29   -0.084612
  30    0.000000
  31   -0.136022
  32   -0.136022
  33   -0.090415
  34   -0.090415
  35   -0.040167
  36    0.127644
  37   -0.184651
  38    0.114824
  39    0.000000
  40   -0.040167
  41    0.127644
  42    0.184651
  43   -0.114824
  44    0.000000
  45    0.153112
  46    0.153112
  47    0.016872
  48   -0.063318
  49   -0.009205
  50    0.212732
  51    0.000000
  52    0.016872
  53   -0.063318
  54    0.009205
  55   -0.212732
  56    0.000000
  57   -0.179152
  58   -0.179152
  59    0.021489
  60    0.021489
 Sym= Bu
 Ene=    -0.4356
 Spin= Alpha
 Occup=   2.000000
   1   -0.022758
   2    0.078049
   3    0.135079
   4    0.124746
   5   -0.000000
   6    0.022758
   7   -0.078049
   8    0.135079
   9    0.124746
  10   -0.000000
  11    0.022156
  12   -0.074586
  13   -0.184893
  14    0.018618
  15   -0.000000
  16   -0.022156
  17    0.074586
  18   -0.184893
  19    0.018618
  20   -0.000000
  21   -0.042599
  22    0.139005
  23    0.101414
  24   -0.096645
  25   -0.000000
  26    0.042599
  27   -0.139005
  28    0.101414
  29   -0.096645
  30   -0.000000
  31   -0.100247
  32    0.100247
  33    0.059896
  34   -0.059896
  35    0.016909
  36   -0.051651
  37   -0.101052
  38    0.219232
  39   -0.000000
  40   -0.016909
  41    0.051651
  42   -0.101052
  43    0.219232
  44   -0.000000
  45    0.155527
  46   -0.155527
  47   -0.008139
  48    0.031350
  49   -0.210320
  50    0.090597
  51   -0.000000
  52    0.008139
  53   -0.031350
  54   -0.210320
  55    0.090597
  56   -0.000000
  57   -0.073089
  58    0.073089
  59    0.178194
  60   -0.178194
 Sym= Bu
 Ene=    -0.4074
 Spin= Alpha
 Occup=   2.000000
   1   -0.069473
   2    0.235361
   3   -0.027514
   4   -0.100922
   5    0.000000
   6    0.069473
   7   -0.235361
   8   -0.027514
   9   -0.100922
  10    0.000000
  11    0.047371
  12   -0.162919
  13    0.061496
  14    0.222279
  15    0.000000
  16   -0.047371
  17    0.162919
  18    0.061496
  19    0.222279
  20    0.000000
  21   -0.044042
  22    0.152860
  23   -0.177890
  24   -0.112952
  25    0.000000
  26    0.044042
  27   -0.152860
  28   -0.177890
  29   -0.112952
  30    0.000000
  31   -0.226736
  32    0.226736
  33    0.230553
  34   -0.230553
  35   -0.015290
  36    0.042283
  37   -0.125139
  38   -0.038074
  39    0.000000
  40    0.015290
  41   -0.042283
  42   -0.125139
  43   -0.038074
  44    0.000000
  45    0.028060
  46   -0.028060
  47    0.012231
  48   -0.050751
  49    0.133619
  50    0.075419
  51    0.000000
  52   -0.012231
  53    0.050751
  54    0.133619
  55    0.075419
  56    0.000000
  57   -0.042128
  58    0.042128
  59   -0.105148
  60    0.105148
 Sym= Bu
 Ene=    -0.3941
 Spin= Alpha
 Occup=   2.000000
   1    0.022733
   2   -0.077376
   3    0.143257
   4   -0.220900
   5    0.000000
   6   -0.022733
   7    0.077376
   8    0.143257
   9   -0.220900
  10    0.000000
  11    0.001295
  12   -0.001634
  13    0.120730
  14   -0.002998
  15    0.000000
  16   -0.001295
  17    0.001634
  18    0.120730
  19   -0.002998
  20    0.000000
  21   -0.011774
  22    0.036775
  23   -0.056902
  24    0.251122
  25    0.000000
  26    0.011774
  27   -0.036775
  28   -0.056902
  29    0.251122
  30    0.000000
  31    0.036574
  32   -0.036574
  33   -0.132591
  34    0.132591
  35    0.002556
  36   -0.014879
  37   -0.181569
  38   -0.043015