[Molden Format]
[Title]
dvb_td_trplet
[Atoms] Angs
C      1  6    -1.393988     0.221376     0.000000
C      2  6     1.393988    -0.221376     0.000000
C      3  6    -0.491971     1.286841     0.000000
C      4  6     0.491971    -1.286841     0.000000
C      5  6     0.873346     1.073147     0.000000
C      6  6    -0.873346    -1.073147     0.000000
H      7  1    -0.871585     2.300751     0.000000
H      8  1     0.871585    -2.300751     0.000000
H      9  1     1.538928     1.925317     0.000000
H     10  1    -1.538928    -1.925317     0.000000
C     11  6     2.862108    -0.509780     0.000000
C     12  6    -2.862108     0.509780     0.000000
H     13  1     3.107058    -1.566221     0.000000
H     14  1    -3.107058     1.566221     0.000000
C     15  6     3.837516     0.370044     0.000000
C     16  6    -3.837516    -0.370044     0.000000
H     17  1     3.668891     1.437166     0.000000
H     18  1    -3.668891    -1.437166     0.000000
H     19  1     4.873385     0.060475     0.000000
H     20  1    -4.873385    -0.060475     0.000000
[GTO]
  1 0
s     3 1.00
   7.161684e+01    1.543290e-01
   1.304510e+01    5.353281e-01
   3.530512e+00    4.446345e-01
s     3 1.00
   2.941249e+00   -9.996723e-02
   6.834831e-01    3.995128e-01
   2.222899e-01    7.001155e-01
p     3 1.00
   2.941249e+00    1.559163e-01
   6.834831e-01    6.076837e-01
   2.222899e-01    3.919574e-01

  2 0
s     3 1.00
   7.161684e+01    1.543290e-01
   1.304510e+01    5.353281e-01
   3.530512e+00    4.446345e-01
s     3 1.00
   2.941249e+00   -9.996723e-02
   6.834831e-01    3.995128e-01
   2.222899e-01    7.001155e-01
p     3 1.00
   2.941249e+00    1.559163e-01
   6.834831e-01    6.076837e-01
   2.222899e-01    3.919574e-01

  3 0
s     3 1.00
   7.161684e+01    1.543290e-01
   1.304510e+01    5.353281e-01
   3.530512e+00    4.446345e-01
s     3 1.00
   2.941249e+00   -9.996723e-02
   6.834831e-01    3.995128e-01
   2.222899e-01    7.001155e-01
p     3 1.00
   2.941249e+00    1.559163e-01
   6.834831e-01    6.076837e-01
   2.222899e-01    3.919574e-01

  4 0
s     3 1.00
   7.161684e+01    1.543290e-01
   1.304510e+01    5.353281e-01
   3.530512e+00    4.446345e-01
s     3 1.00
   2.941249e+00   -9.996723e-02
   6.834831e-01    3.995128e-01
   2.222899e-01    7.001155e-01
p     3 1.00
   2.941249e+00    1.559163e-01
   6.834831e-01    6.076837e-01
   2.222899e-01    3.919574e-01

  5 0
s     3 1.00
   7.161684e+01    1.543290e-01
   1.304510e+01    5.353281e-01
   3.530512e+00    4.446345e-01
s     3 1.00
   2.941249e+00   -9.996723e-02
   6.834831e-01    3.995128e-01
   2.222899e-01    7.001155e-01
p     3 1.00
   2.941249e+00    1.559163e-01
   6.834831e-01    6.076837e-01
   2.222899e-01    3.919574e-01

  6 0
s     3 1.00
   7.161684e+01    1.543290e-01
   1.304510e+01    5.353281e-01
   3.530512e+00    4.446345e-01
s     3 1.00
   2.941249e+00   -9.996723e-02
   6.834831e-01    3.995128e-01
   2.222899e-01    7.001155e-01
p     3 1.00
   2.941249e+00    1.559163e-01
   6.834831e-01    6.076837e-01
   2.222899e-01    3.919574e-01

  7 0
s     3 1.00
   3.425251e+00    1.543290e-01
   6.239137e-01    5.353281e-01
   1.688554e-01    4.446345e-01

  8 0
s     3 1.00
   3.425251e+00    1.543290e-01
   6.239137e-01    5.353281e-01
   1.688554e-01    4.446345e-01

  9 0
s     3 1.00
   3.425251e+00    1.543290e-01
   6.239137e-01    5.353281e-01
   1.688554e-01    4.446345e-01

 10 0
s     3 1.00
   3.425251e+00    1.543290e-01
   6.239137e-01    5.353281e-01
   1.688554e-01    4.446345e-01

 11 0
s     3 1.00
   7.161684e+01    1.543290e-01
   1.304510e+01    5.353281e-01
   3.530512e+00    4.446345e-01
s     3 1.00
   2.941249e+00   -9.996723e-02
   6.834831e-01    3.995128e-01
   2.222899e-01    7.001155e-01
p     3 1.00
   2.941249e+00    1.559163e-01
   6.834831e-01    6.076837e-01
   2.222899e-01    3.919574e-01

 12 0
s     3 1.00
   7.161684e+01    1.543290e-01
   1.304510e+01    5.353281e-01
   3.530512e+00    4.446345e-01
s     3 1.00
   2.941249e+00   -9.996723e-02
   6.834831e-01    3.995128e-01
   2.222899e-01    7.001155e-01
p     3 1.00
   2.941249e+00    1.559163e-01
   6.834831e-01    6.076837e-01
   2.222899e-01    3.919574e-01

 13 0
s     3 1.00
   3.425251e+00    1.543290e-01
   6.239137e-01    5.353281e-01
   1.688554e-01    4.446345e-01

 14 0
s     3 1.00
   3.425251e+00    1.543290e-01
   6.239137e-01    5.353281e-01
   1.688554e-01    4.446345e-01

 15 0
s     3 1.00
   7.161684e+01    1.543290e-01
   1.304510e+01    5.353281e-01
   3.530512e+00    4.446345e-01
s     3 1.00
   2.941249e+00   -9.996723e-02
   6.834831e-01    3.995128e-01
   2.222899e-01    7.001155e-01
p     3 1.00
   2.941249e+00    1.559163e-01
   6.834831e-01    6.076837e-01
   2.222899e-01    3.919574e-01

 16 0
s     3 1.00
   7.161684e+01    1.543290e-01
   1.304510e+01    5.353281e-01
   3.530512e+00    4.446345e-01
s     3 1.00
   2.941249e+00   -9.996723e-02
   6.834831e-01    3.995128e-01
   2.222899e-01    7.001155e-01
p     3 1.00
   2.941249e+00    1.559163e-01
   6.834831e-01    6.076837e-01
   2.222899e-01    3.919574e-01

 17 0
s     3 1.00
   3.425251e+00    1.543290e-01
   6.239137e-01    5.353281e-01
   1.688554e-01    4.446345e-01

 18 0
s     3 1.00
   3.425251e+00    1.543290e-01
   6.239137e-01    5.353281e-01
   1.688554e-01    4.446345e-01

 19 0
s     3 1.00
   3.425251e+00    1.543290e-01
   6.239137e-01    5.353281e-01
   1.688554e-01    4.446345e-01

 20 0
s     3 1.00
   3.425251e+00    1.543290e-01
   6.239137e-01    5.353281e-01
   1.688554e-01    4.446345e-01

[MO]
 Sym= A
 Ene=   -10.0165
 Spin= Alpha
 Occup=   2.000000
   1    0.705361
   2    0.032482
   3    0.001185
   4   -0.000062
   5   -0.000000
   6   -0.693321
   7   -0.031931
   8    0.001169
   9   -0.000062
  10   -0.000000
  11   -0.015982
  12   -0.008079
  13    0.002683
  14    0.003650
  15   -0.000000
  16    0.015696
  17    0.007955
  18    0.002631
  19    0.003590
  20   -0.000000
  21    0.016276
  22    0.007935
  23    0.001368
  24   -0.004212
  25   -0.000000
  26   -0.016568
  27   -0.008058
  28    0.001399
  29   -0.004284
  30   -0.000000
  31    0.000338
  32   -0.000334
  33   -0.000334
  34    0.000337
  35    0.027425
  36    0.006726
  37   -0.003935
  38    0.000885
  39   -0.000000
  40   -0.027906
  41   -0.006844
  42   -0.004004
  43    0.000900
  44   -0.000000
  45   -0.000337
  46    0.000343
  47   -0.000099
  48   -0.000503
  49    0.000294
  50   -0.000009
  51   -0.000000
  52    0.000100
  53    0.000512
  54    0.000299
  55   -0.000009
  56   -0.000000
  57    0.000156
  58   -0.000158
  59    0.000029
  60   -0.000029
 Sym= A
 Ene=   -10.0164
 Spin= Alpha
 Occup=   2.000000
   1    0.693304
   2    0.031725
   3    0.000879
   4   -0.000005
   5   -0.000000
   6    0.705344
   7    0.032280
   8   -0.000899
   9    0.000006
  10   -0.000000
  11   -0.016560
  12   -0.007115
  13    0.003007
  14    0.003420
  15   -0.000000
  16   -0.016834
  17   -0.007253
  18   -0.003052
  19   -0.003482
  20   -0.000000
  21   -0.017180
  22   -0.007207
  23   -0.001814
  24    0.004204
  25   -0.000000
  26   -0.016896
  27   -0.007069
  28    0.001791
  29   -0.004131
  30   -0.000000
  31    0.000204
  32    0.000210
  33    0.000213
  34    0.000208
  35   -0.028320
  36   -0.006921
  37    0.004046
  38   -0.000908
  39   -0.000000
  40   -0.027841
  41   -0.006804
  42   -0.003977
  43    0.000893
  44   -0.000000
  45    0.000356
  46    0.000350
  47    0.000113
  48    0.000516
  49   -0.000306
  50    0.000009
  51   -0.000000
  52    0.000112
  53    0.000507
  54    0.000301
  55   -0.000008
  56   -0.000000
  57   -0.000151
  58   -0.000148
  59   -0.000028
  60   -0.000028
 Sym= A
 Ene=   -10.0045
 Spin= Alpha
 Occup=   2.000000
   1   -0.025904
   2    0.003782
   3   -0.003787
   4    0.000571
   5    0.000000
   6    0.030790
   7   -0.004474
   8   -0.004490
   9    0.000676
  10    0.000000
  11    0.005506
  12    0.000374
  13   -0.000008
  14   -0.000112
  15    0.000000
  16   -0.007184
  17   -0.000462
  18   -0.000016
  19   -0.000147
  20    0.000000
  21   -0.005913
  22   -0.000343
  23    0.000060
  24    0.000155
  25    0.000000
  26    0.004456
  27    0.000281
  28    0.000057
  29    0.000118
  30    0.000000
  31   -0.000049
  32    0.000061
  33   -0.000098
  34    0.000083
  35    0.756881
  36    0.033901
  37    0.001447
  38    0.000894
  39    0.000000
  40   -0.637745
  41   -0.028568
  42    0.001218
  43    0.000753
  44    0.000000
  45   -0.007124
  46    0.006003
  47   -0.003898
  48   -0.008551
  49    0.003781
  50    0.003378
  51    0.000000
  52    0.003286
  53    0.007205
  54    0.003186
  55    0.002846
  56    0.000000
  57    0.000183
  58   -0.000154
  59    0.000221
  60   -0.000186
 Sym= A
 Ene=   -10.0045
 Spin= Alpha
 Occup=   2.000000
   1    0.031004
   2   -0.004406
   3    0.004468
   4   -0.000670
   5   -0.000000
   6    0.026163
   7   -0.003701
   8   -0.003761
   9    0.000564
  10   -0.000000
  11   -0.010360
  12   -0.000551
  13    0.000051
  14    0.000214
  15   -0.000000
  16   -0.009277
  17   -0.000479
  18   -0.000049
  19   -0.000192
  20   -0.000000
  21   -0.008083
  22   -0.000338
  23    0.000016
  24    0.000202
  25   -0.000000
  26   -0.008968
  27   -0.000392
  28   -0.000026
  29   -0.000226
  30   -0.000000
  31    0.000071
  32    0.000062
  33   -0.000078
  34   -0.000093
  35    0.637656
  36    0.028545
  37    0.001230
  38    0.000751
  39   -0.000000
  40    0.756806
  41    0.033883
  42   -0.001458
  43   -0.000891
  44   -0.000000
  45   -0.006000
  46   -0.007122
  47   -0.003278
  48   -0.007203
  49    0.003184
  50    0.002847
  51   -0.000000
  52   -0.003892
  53   -0.008549
  54   -0.003779
  55   -0.003378
  56   -0.000000
  57    0.000154
  58    0.000183
  59    0.000187
  60    0.000221
 Sym= A
 Ene=   -10.0028
 Spin= Alpha
 Occup=   2.000000
   1    0.023327
   2   -0.008429
   3   -0.002891
   4    0.002222
   5    0.000000
   6   -0.023299
   7    0.008420
   8   -0.002892
   9    0.002198
  10    0.000000
  11    0.306737
  12    0.020199
  13    0.004253
  14   -0.001129
  15    0.000000
  16   -0.308343
  17   -0.020297
  18    0.004271
  19   -0.001133
  20    0.000000
  21   -0.627064
  22   -0.031518
  23    0.002773
  24    0.000430
  25    0.000000
  26    0.629769
  27    0.031656
  28    0.002786
  29    0.000431
  30    0.000000
  31   -0.003029
  32    0.003045
  33    0.005906
  34   -0.005932
  35   -0.006607
  36   -0.000480
  37   -0.000003
  38   -0.000051
  39    0.000000
  40    0.006616
  41    0.000481
  42   -0.000003
  43   -0.000051
  44    0.000000
  45    0.000118
  46   -0.000118
  47    0.000890
  48    0.000207
  49   -0.000114
  50    0.000011
  51    0.000000
  52   -0.000892
  53   -0.000208
  54   -0.000114
  55    0.000011
  56    0.000000
  57   -0.000158
  58    0.000159
  59    0.000013
  60   -0.000013
 Sym= A
 Ene=   -10.0027
 Spin= Alpha
 Occup=   2.000000
   1    0.007137
   2   -0.002171
   3    0.000002
   4    0.005283
   5   -0.000000
   6    0.007241
   7   -0.002208
   8    0.000010
   9   -0.005294
  10   -0.000000
  11   -0.342515
  12   -0.021424
  13   -0.004116
  14    0.001070
  15   -0.000000
  16   -0.341237
  17   -0.021337
  18    0.004097
  19   -0.001065
  20   -0.000000
  21    0.612230
  22    0.030935
  23   -0.002807
  24   -0.000151
  25   -0.000000
  26    0.609356
  27    0.030792
  28    0.002795
  29    0.000149
  30   -0.000000
  31    0.003269
  32    0.003256
  33   -0.005798
  34   -0.005771
  35    0.002390
  36    0.000114
  37    0.000049
  38    0.000089
  39   -0.000000
  40    0.002362
  41    0.000112
  42   -0.000049
  43   -0.000089
  44   -0.000000
  45   -0.000057
  46   -0.000057
  47   -0.000482
  48   -0.000101
  49    0.000042
  50   -0.000026
  51   -0.000000
  52   -0.000478
  53   -0.000100
  54   -0.000042
  55    0.000026
  56   -0.000000
  57    0.000160
  58    0.000159
  59   -0.000008
  60   -0.000008
 Sym= A
 Ene=   -10.0021
 Spin= Alpha
 Occup=   2.000000
   1   -0.007557
   2    0.002888
   3    0.001875
   4    0.004750
   5   -0.000000
   6    0.007595
   7   -0.002900
   8    0.001879
   9    0.004750
  10   -0.000000
  11   -0.628599
  12   -0.025405
  13    0.001443
  14    0.000589
  15   -0.000000
  16    0.629422
  17    0.025436
  18    0.001447
  19    0.000589
  20   -0.000000
  21   -0.308446
  22   -0.007684
  23   -0.003617
  24    0.000920
  25   -0.000000
  26    0.309040
  27    0.007703
  28   -0.003622
  29    0.000921
  30   -0.000000
  31    0.005709
  32   -0.005716
  33    0.002663
  34   -0.002668
  35    0.003170
  36    0.000218
  37    0.000027
  38    0.000028
  39   -0.000000
  40   -0.003152
  41   -0.000217
  42    0.000027
  43    0.000028
  44   -0.000000
  45   -0.000058
  46    0.000058
  47    0.000094
  48   -0.000063
  49    0.000028
  50    0.000047
  51   -0.000000
  52   -0.000095
  53    0.000063
  54    0.000028
  55    0.000047
  56   -0.000000
  57   -0.000055
  58    0.000055
  59    0.000009
  60   -0.000009
 Sym= A
 Ene=   -10.0019
 Spin= Alpha
 Occup=   2.000000
   1    0.024764
   2   -0.007803
   3   -0.003233
   4   -0.000958
   5    0.000000
   6    0.024752
   7   -0.007797
   8    0.003230
   9    0.000952
  10    0.000000
  11    0.611494
  12    0.024170
  13   -0.001765
  14   -0.000127
  15    0.000000
  16    0.610553
  17    0.024131
  18    0.001763
  19    0.000126
  20    0.000000
  21    0.342484
  22    0.009461
  23    0.003576
  24   -0.000697
  25    0.000000
  26    0.342112
  27    0.009453
  28   -0.003570
  29    0.000696
  30    0.000000
  31   -0.005727
  32   -0.005718
  33   -0.003187
  34   -0.003184
  35    0.011880
  36    0.000575
  37    0.000153
  38    0.000017
  39    0.000000
  40    0.011886
  41    0.000575
  42   -0.000153
  43   -0.000017
  44    0.000000
  45   -0.000203
  46   -0.000203
  47   -0.000987
  48   -0.000271
  49    0.000161
  50    0.000038
  51    0.000000
  52   -0.000987
  53   -0.000271
  54   -0.000161
  55   -0.000038
  56    0.000000
  57    0.000066
  58    0.000066
  59   -0.000012
  60   -0.000012
 Sym= A
 Ene=    -9.9886
 Spin= Alpha
 Occup=   2.000000
   1   -0.000034
   2   -0.000103
   3    0.000041
   4   -0.000006
   5   -0.000000
   6    0.000096
   7    0.000296
   8    0.000115
   9   -0.000014
  10   -0.000000
  11    0.000004
  12   -0.000025
  13   -0.000066
  14    0.000000
  15   -0.000000
  16    0.000517
  17   -0.000040
  18   -0.000090
  19   -0.000018
  20   -0.000000
  21    0.001141
  22   -0.000018
  23   -0.000142
  24    0.000004
  25   -0.000000
  26   -0.000369
  27   -0.000005
  28   -0.000058
  29    0.000004
  30   -0.000000
  31    0.000003
  32   -0.000016
  33    0.000124
  34   -0.000043
  35    0.005912
  36   -0.010109
  37   -0.004600
  38   -0.004215
  39   -0.000000
  40   -0.002048
  41    0.003505
  42   -0.001595
  43   -0.001462
  44   -0.000000
  45    0.000142
  46   -0.000049
  47    0.935936
  48    0.042262
  49   -0.001446
  50   -0.001411
  51   -0.000000
  52   -0.324511
  53   -0.014653
  54   -0.000502
  55   -0.000489
  56   -0.000000
  57   -0.008688
  58    0.003012
  59   -0.008722
  60    0.003024
 Sym= A
 Ene=    -9.9886
 Spin= Alpha
 Occup=   2.000000
   1    0.000096
   2    0.000295
   3   -0.000114
   4    0.000013
   5   -0.000000
   6    0.000033
   7    0.000102
   8    0.000038
   9   -0.000004
  10   -0.000000
  11    0.000661
  12   -0.000071
  13    0.000062
  14    0.000024
  15   -0.000000
  16    0.000412
  17   -0.000064
  18    0.000013
  19   -0.000015
  20   -0.000000
  21    0.000429
  22   -0.000021
  23   -0.000038
  24   -0.000002
  25   -0.000000
  26    0.001161
  27   -0.000027
  28    0.000135
  29   -0.000002
  30   -0.000000
  31   -0.000018
  32   -0.000009
  33    0.000043
  34    0.000125
  35    0.002053
  36   -0.003505
  37   -0.001595
  38   -0.001461
  39   -0.000000
  40    0.005914
  41   -0.010108
  42    0.004600
  43    0.004215
  44   -0.000000
  45    0.000049
  46    0.000142
  47    0.324510
  48    0.014653
  49   -0.000501
  50   -0.000489
  51   -0.000000
  52    0.935936
  53    0.042262
  54    0.001446
  55    0.001411
  56   -0.000000
  57   -0.003012
  58   -0.008688
  59   -0.003024
  60   -0.008722
 Sym= A
 Ene=    -0.8192
 Spin= Alpha
 Occup=   2.000000
   1   -0.108176
   2    0.270125
   3    0.046423
   4   -0.006129
   5    0.000000
   6   -0.108176
   7    0.270126
   8   -0.046423
   9    0.006130
  10    0.000000
  11   -0.099309
  12    0.245390
  13    0.015723
  14   -0.055731
  15    0.000000
  16   -0.099309
  17    0.245391
  18   -0.015723
  19    0.055731
  20    0.000000
  21   -0.098981
  22    0.245055
  23   -0.032928
  24   -0.048340
  25    0.000000
  26   -0.098982
  27    0.245056
  28    0.032928
  29    0.048340
  30    0.000000
  31    0.044430
  32    0.044430
  33    0.044520
  34    0.044520
  35   -0.047023
  36    0.119117
  37   -0.026936
  38    0.012365
  39    0.000000
  40   -0.047023
  41    0.119117
  42    0.026936
  43   -0.012365
  44    0.000000
  45    0.023922
  46    0.023922
  47   -0.023538
  48    0.058727
  49   -0.019806
  50   -0.012226
  51    0.000000
  52   -0.023538
  53    0.058727
  54    0.019806
  55    0.012226
  56    0.000000
  57    0.013134
  58    0.013134
  59    0.009849
  60    0.009849
 Sym= A
 Ene=    -0.7594
 Spin= Alpha
 Occup=   2.000000
   1    0.102703
   2   -0.267419
   3    0.029747
   4   -0.003457
   5    0.000000
   6   -0.102703
   7    0.267420
   8    0.029746
   9   -0.003457
  10    0.000000
  11    0.039130
  12   -0.100531
  13    0.060029
  14    0.028600
  15    0.000000
  16   -0.039130
  17    0.100530
  18    0.060029
  19    0.028600
  20    0.000000
  21   -0.043394
  22    0.112073
  23    0.047401
  24   -0.045511
  25    0.000000
  26    0.043394
  27   -0.112074
  28    0.047402
  29   -0.045511
  30    0.000000
  31   -0.026628
  32    0.026628
  33    0.030464
  34   -0.030464
  35   -0.114367
  36    0.293648
  37   -0.003222
  38    0.035844
  39    0.000000
  40    0.114367
  41   -0.293648
  42   -0.003223
  43    0.035844
  44    0.000000
  45    0.066900
  46   -0.066900
  47   -0.083345
  48    0.212029
  49   -0.051950
  50   -0.039764
  51    0.000000
  52    0.083345
  53   -0.212028
  54   -0.051950
  55   -0.039764
  56    0.000000
  57    0.049190
  58   -0.049190
  59    0.044623
  60   -0.044623
 Sym= A
 Ene=    -0.7250
 Spin= Alpha
 Occup=   2.000000
   1   -0.004761
   2    0.015887
   3   -0.094390
   4    0.009599
   5   -0.000000
   6   -0.004761
   7    0.015886
   8    0.094390
   9   -0.009599
  10   -0.000000
  11    0.043690
  12   -0.112002
  13   -0.036192
  14    0.016334
  15   -0.000000
  16    0.043690
  17   -0.112003
  18    0.036192
  19   -0.016334
  20   -0.000000
  21    0.039171
  22   -0.099851
  23    0.046527
  24    0.003105
  25   -0.000000
  26    0.039171
  27   -0.099851
  28   -0.046527
  29   -0.003105
  30   -0.000000
  31   -0.021144
  32   -0.021144
  33   -0.014901
  34   -0.014901
  35   -0.120991
  36    0.313300
  37    0.061835
  38    0.047833
  39   -0.000000
  40   -0.120991
  41    0.313301
  42   -0.061835
  43   -0.047833
  44   -0.000000
  45    0.076508
  46    0.076508
  47   -0.119634
  48    0.309015
  49   -0.055614
  50   -0.052375
  51   -0.000000
  52   -0.119633
  53    0.309015
  54    0.055614
  55    0.052375
  56   -0.000000
  57    0.073936
  58    0.073936
  59    0.074723
  60    0.074723
 Sym= A
 Ene=    -0.7048
 Spin= Alpha
 Occup=   2.000000
   1   -0.013339
   2    0.035511
   3    0.022899
   4    0.128428
   5    0.000000
   6    0.013339
   7   -0.035512
   8    0.022899
   9    0.128428
  10    0.000000
  11   -0.133400
  12    0.353989
  13    0.056467
  14    0.003398
  15    0.000000
  16    0.133400
  17   -0.353989
  18    0.056467
  19    0.003398
  20    0.000000
  21   -0.120346
  22    0.319290
  23   -0.067881
  24    0.034684
  25    0.000000
  26    0.120346
  27   -0.319289
  28   -0.067881
  29    0.034684
  30    0.000000
  31    0.098409
  32   -0.098409
  33    0.089556
  34   -0.089556
  35    0.000231
  36   -0.001500
  37    0.018940
  38    0.023228
  39    0.000000
  40   -0.000231
  41    0.001499
  42    0.018940
  43    0.023228
  44    0.000000
  45   -0.009991
  46    0.009991
  47   -0.014512
  48    0.037105
  49   -0.006507
  50    0.001374
  51    0.000000
  52    0.014512
  53   -0.037106
  54   -0.006508
  55    0.001373
  56    0.000000
  57    0.014399
  58   -0.014399
  59    0.008830
  60   -0.008830
 Sym= A
 Ene=    -0.6740
 Spin= Alpha
 Occup=   2.000000
   1    0.101940
   2   -0.275072
   3   -0.059352
   4    0.018946
   5    0.000000
   6   -0.101941
   7    0.275073
   8   -0.059352
   9    0.018946
  10    0.000000
  11    0.041509
  12   -0.112452
  13    0.094139
  14    0.040718
  15    0.000000
  16   -0.041509
  17    0.112451
  18    0.094139
  19    0.040718
  20    0.000000
  21   -0.074884
  22    0.202632
  23    0.048484
  24   -0.056687
  25    0.000000
  26    0.074884
  27   -0.202632
  28    0.048483
  29   -0.056687
  30    0.000000
  31   -0.031979
  32    0.031979
  33    0.053683
  34   -0.053683
  35    0.052714
  36   -0.136401
  37   -0.130281
  38   -0.040551
  39    0.000000
  40   -0.052714
  41    0.136402
  42   -0.130281
  43   -0.040551
  44    0.000000
  45   -0.037430
  46    0.037430
  47    0.108885
  48   -0.289450
  49    0.018236
  50    0.037234
  51    0.000000
  52   -0.108885
  53    0.289450
  54    0.018236
  55    0.037234
  56    0.000000
  57   -0.074425
  58    0.074425
  59   -0.087041
  60    0.087041
 Sym= A
 Ene=    -0.5901
 Spin= Alpha
 Occup=   2.000000
   1    0.069731
   2   -0.199932
   3    0.068820
   4   -0.130837
   5    0.000000
   6    0.069731
   7   -0.199932
   8   -0.068821
   9    0.130837
  10    0.000000
  11    0.007823
  12   -0.023542
  13    0.167693
  14    0.030419
  15    0.000000
  16    0.007823
  17   -0.023542
  18   -0.167692
  19   -0.030420
  20    0.000000
  21   -0.084503
  22    0.237058
  23   -0.019781
  24    0.064647
  25    0.000000
  26   -0.084503
  27    0.237059
  28    0.019781
  29   -0.064647
  30    0.000000
  31   -0.025654
  32   -0.025654
  33    0.109475
  34    0.109475
  35    0.052339
  36   -0.156228
  37    0.126074
  38    0.084867
  39    0.000000
  40    0.052339
  41   -0.156228
  42   -0.126074
  43   -0.084867
  44    0.000000
  45   -0.082123
  46   -0.082123
  47   -0.080052
  48    0.226888
  49    0.036809
  50    0.035861
  51    0.000000
  52   -0.080052
  53    0.226889
  54   -0.036809
  55   -0.035861
  56    0.000000
  57    0.099767
  58    0.099767
  59    0.092901
  60    0.092901
 Sym= A
 Ene=    -0.5620
 Spin= Alpha
 Occup=   2.000000
   1    0.058415
   2   -0.170037
   3    0.063892
   4    0.184192
   5    0.000000
   6    0.058415
   7   -0.170037
   8   -0.063892
   9   -0.184192
  10    0.000000
  11   -0.110210
  12    0.319796
  13   -0.027571
  14    0.085516
  15    0.000000
  16   -0.110210
  17    0.319796
  18    0.027570
  19   -0.085517
  20    0.000000
  21    0.052728
  22   -0.153840
  23   -0.174793
  24    0.094997
  25    0.000000
  26    0.052729
  27   -0.153841
  28    0.174793
  29   -0.094997
  30    0.000000
  31    0.168014
  32    0.168015
  33   -0.073990
  34   -0.073990
  35    0.009146
  36   -0.029430
  37    0.083291
  38   -0.044214
  39    0.000000
  40    0.009146
  41   -0.029430
  42   -0.083291
  43    0.044214
  44    0.000000
  45    0.029488
  46    0.029488
  47   -0.039393
  48    0.116215
  49    0.051776
  50   -0.014005
  51    0.000000
  52   -0.039393
  53    0.116216
  54   -0.051776
  55    0.014005
  56    0.000000
  57    0.024999
  58    0.024999
  59    0.070120
  60    0.070120
 Sym= A
 Ene=    -0.5321
 Spin= Alpha
 Occup=   2.000000
   1   -0.013119
   2    0.036042
   3    0.133346
   4   -0.054417
   5   -0.000000
   6    0.013119
   7   -0.036043
   8    0.133347
   9   -0.054417
  10   -0.000000
  11   -0.048799
  12    0.146762
  13   -0.000042
  14   -0.007039
  15   -0.000000
  16    0.048799
  17   -0.146761
  18   -0.000043
  19   -0.007040
  20   -0.000000
  21    0.027865
  22   -0.083004
  23   -0.078437
  24    0.038160
  25   -0.000000
  26   -0.027865
  27    0.083005
  28   -0.078437
  29    0.038159
  30   -0.000000
  31    0.045953
  32   -0.045953
  33   -0.050559
  34    0.050560
  35   -0.098437
  36    0.297895
  37   -0.039663
  38   -0.121130
  39   -0.000000
  40    0.098437
  41   -0.297894
  42   -0.039663
  43   -0.121130
  44   -0.000000
  45    0.173333
  46   -0.173332
  47    0.081091
  48   -0.247504
  49   -0.092887
  50   -0.128416
  51   -0.000000
  52   -0.081091
  53    0.247504
  54   -0.092887
  55   -0.128416
  56   -0.000000
  57   -0.163338
  58    0.163338
  59   -0.125000
  60    0.125000
 Sym= A
 Ene=    -0.5148
 Spin= Alpha
 Occup=   2.000000
   1   -0.049970
   2    0.143530
   3    0.148352
   4    0.022526
   5   -0.000000
   6   -0.049970
   7    0.143530
   8   -0.148351
   9   -0.022526
  10   -0.000000
  11    0.006136
  12   -0.024078
  13   -0.082008
  14   -0.188260
  15   -0.000000
  16    0.006136
  17   -0.024079
  18    0.082007
  19    0.188260
  20   -0.000000
  21    0.052789
  22   -0.166431
  23   -0.043016
  24   -0.203161
  25   -0.000000
  26    0.052789
  27   -0.166430
  28    0.043015
  29    0.203162
  30   -0.000000
  31   -0.099714
  32   -0.099715
  33   -0.171587
  34   -0.171587
  35    0.057455
  36   -0.172762
  37    0.009289
  38    0.061552
  39   -0.000000
  40    0.057455
  41   -0.172764
  42   -0.009289
  43   -0.061552
  44   -0.000000
  45   -0.106110
  46   -0.106111
  47   -0.052742
  48    0.164615
  49    0.082550
  50    0.074761
  51   -0.000000
  52   -0.052742
  53    0.164616
  54   -0.082551
  55   -0.074762
  56   -0.000000
  57    0.092749
  58    0.092750
  59    0.098518
  60    0.098519
 Sym= A
 Ene=    -0.4625
 Spin= Alpha
 Occup=   2.000000
   1   -0.034068
   2    0.111118
   3   -0.126604
   4    0.052209
   5    0.000000
   6   -0.034068
   7    0.111118
   8    0.126604
   9   -0.052210
  10    0.000000
  11   -0.013800
  12    0.053206
  13   -0.144967
  14    0.128340
  15    0.000000
  16   -0.013800
  17    0.053207
  18    0.144968
  19   -0.128340
  20    0.000000
  21    0.020357
  22   -0.055955
  23    0.132889
  24    0.079366
  25    0.000000
  26    0.020358
  27   -0.055956
  28   -0.132889
  29   -0.079365
  30    0.000000
  31    0.129756
  32    0.129756
  33    0.082656
  34    0.082656
  35    0.042416
  36   -0.131497
  37   -0.184441
  38    0.115453
  39    0.000000
  40    0.042416
  41   -0.131497
  42    0.184441
  43   -0.115453
  44    0.000000
  45   -0.153390
  46   -0.153390
  47   -0.019239
  48    0.071594
  49   -0.003714
  50    0.219034
  51    0.000000
  52   -0.019239
  53    0.071594
  54    0.003714
  55   -0.219034
  56    0.000000
  57    0.182238
  58    0.182238
  59   -0.014670
  60   -0.014670
 Sym= A
 Ene=    -0.4430
 Spin= Alpha
 Occup=   2.000000
   1   -0.017676
   2    0.061177
   3   -0.135722
   4   -0.134283
   5    0.000000
   6    0.017676
   7   -0.061177
   8   -0.135722
   9   -0.134283
  10    0.000000
  11    0.019104
  12   -0.063223
  13    0.189234
  14   -0.000566
  15    0.000000
  16   -0.019104
  17    0.063223
  18    0.189234
  19   -0.000566
  20    0.000000
  21   -0.039090
  22    0.125570
  23   -0.113088
  24    0.092329
  25    0.000000
  26    0.039090
  27   -0.125570
  28   -0.113088
  29    0.092330
  30    0.000000
  31   -0.083297
  32    0.083297
  33    0.049180
  34   -0.049181
  35    0.020063
  36   -0.060018
  37    0.091962
  38   -0.219021
  39    0.000000
  40   -0.020063
  41    0.060018
  42    0.091962
  43   -0.219020
  44    0.000000
  45    0.146430
  46   -0.146429
  47   -0.010116
  48    0.039196
  49    0.222873
  50   -0.080974
  51    0.000000
  52    0.010116
  53   -0.039196
  54    0.222872
  55   -0.080973
  56    0.000000
  57   -0.062791
  58    0.062791
  59    0.185070
  60   -0.185069
 Sym= A
 Ene=    -0.4105
 Spin= Alpha
 Occup=   2.000000
   1    0.068000
   2   -0.228585
   3   -0.009323
   4   -0.109481
   5    0.000000
   6   -0.068000
   7    0.228586
   8   -0.009324
   9   -0.109482
  10    0.000000
  11   -0.048820
  12    0.166956
  13    0.056710
  14    0.227558
  15    0.000000
  16    0.048820
  17   -0.166957
  18    0.056711
  19    0.227556
  20    0.000000
  21    0.047649
  22   -0.163775
  23   -0.177571
  24   -0.105752
  25    0.000000
  26   -0.047650
  27    0.163776
  28   -0.177572
  29   -0.105752
  30    0.000000
  31    0.232588
  32   -0.232587
  33   -0.226510
  34    0.226511
  35    0.011467
  36   -0.027165
  37   -0.141278
  38   -0.027716
  39    0.000000
  40   -0.011466
  41    0.027164
  42   -0.141277
  43   -0.027713
  44    0.000000
  45   -0.032224
  46    0.032225
  47   -0.010751
  48    0.047131
  49    0.108394
  50    0.100543
  51    0.000000
  52    0.010751
  53   -0.047131
  54    0.108391
  55    0.100543
  56    0.000000
  57    0.063970
  58   -0.063970
  59    0.078312
  60   -0.078309
 Sym= A
 Ene=    -0.4019
 Spin= Alpha
 Occup=   2.000000
   1   -0.027696
   2    0.092046
   3    0.150364
   4   -0.212574
   5    0.000000
   6    0.027697
   7   -0.092046
   8    0.150364
   9   -0.212574
  10    0.000000
  11    0.002101
  12   -0.010467
  13    0.117536
  14   -0.020557
  15    0.000000
  16   -0.002101
  17    0.010468
  18    0.117535
  19   -0.020557
  20    0.000000
  21    0.009020
  22   -0.025611
  23   -0.046425
  24    0.260984
  25    0.000000
  26   -0.009020
  27    0.025611
  28   -0.046424
  29    0.260985
  30    0.000000
  31   -0.054078
  32    0.054078
  33    0.147640
  34   -0.147641
  35   -0.003769
  36    0.019492
  37   -0.174031
  38   -0.032901
  39    0.000000