[Molden Format]
[Title]
dvb_gopt_a
[Atoms] Angs
C      1  6    -1.417958     0.227342    -0.000000
C      2  6     1.417958    -0.227342     0.000000
C      3  6    -0.496307     1.311190     0.000000
C      4  6     0.496307    -1.311190    -0.000000
C      5  6     0.888885     1.091915    -0.000000
C      6  6    -0.888885    -1.091915     0.000000
H      7  1    -0.883639     2.339511     0.000000
H      8  1     0.883639    -2.339511    -0.000000
H      9  1     1.570185     1.952718     0.000000
H     10  1    -1.570185    -1.952718    -0.000000
C     11  6     2.887024    -0.520287     0.000000
C     12  6    -2.887024     0.520287    -0.000000
H     13  1     3.136077    -1.592264    -0.000000
H     14  1    -3.136077     1.592264     0.000000
C     15  6     3.884925     0.380725     0.000000
C     16  6    -3.884925    -0.380725    -0.000000
H     17  1     3.705288     1.462231     0.000000
H     18  1    -3.705288    -1.462231    -0.000000
H     19  1     4.935165     0.065963     0.000000
H     20  1    -4.935165    -0.065963    -0.000000
[GTO]
  1 0
s     3 1.00
   7.161684e+01    1.543290e-01
   1.304510e+01    5.353281e-01
   3.530512e+00    4.446345e-01
s     3 1.00
   2.941249e+00   -9.996723e-02
   6.834831e-01    3.995128e-01
   2.222899e-01    7.001155e-01
p     3 1.00
   2.941249e+00    1.559163e-01
   6.834831e-01    6.076837e-01
   2.222899e-01    3.919574e-01

  2 0
s     3 1.00
   7.161684e+01    1.543290e-01
   1.304510e+01    5.353281e-01
   3.530512e+00    4.446345e-01
s     3 1.00
   2.941249e+00   -9.996723e-02
   6.834831e-01    3.995128e-01
   2.222899e-01    7.001155e-01
p     3 1.00
   2.941249e+00    1.559163e-01
   6.834831e-01    6.076837e-01
   2.222899e-01    3.919574e-01

  3 0
s     3 1.00
   7.161684e+01    1.543290e-01
   1.304510e+01    5.353281e-01
   3.530512e+00    4.446345e-01
s     3 1.00
   2.941249e+00   -9.996723e-02
   6.834831e-01    3.995128e-01
   2.222899e-01    7.001155e-01
p     3 1.00
   2.941249e+00    1.559163e-01
   6.834831e-01    6.076837e-01
   2.222899e-01    3.919574e-01

  4 0
s     3 1.00
   7.161684e+01    1.543290e-01
   1.304510e+01    5.353281e-01
   3.530512e+00    4.446345e-01
s     3 1.00
   2.941249e+00   -9.996723e-02
   6.834831e-01    3.995128e-01
   2.222899e-01    7.001155e-01
p     3 1.00
   2.941249e+00    1.559163e-01
   6.834831e-01    6.076837e-01
   2.222899e-01    3.919574e-01

  5 0
s     3 1.00
   7.161684e+01    1.543290e-01
   1.304510e+01    5.353281e-01
   3.530512e+00    4.446345e-01
s     3 1.00
   2.941249e+00   -9.996723e-02
   6.834831e-01    3.995128e-01
   2.222899e-01    7.001155e-01
p     3 1.00
   2.941249e+00    1.559163e-01
   6.834831e-01    6.076837e-01
   2.222899e-01    3.919574e-01

  6 0
s     3 1.00
   7.161684e+01    1.543290e-01
   1.304510e+01    5.353281e-01
   3.530512e+00    4.446345e-01
s     3 1.00
   2.941249e+00   -9.996723e-02
   6.834831e-01    3.995128e-01
   2.222899e-01    7.001155e-01
p     3 1.00
   2.941249e+00    1.559163e-01
   6.834831e-01    6.076837e-01
   2.222899e-01    3.919574e-01

  7 0
s     3 1.00
   3.425251e+00    1.543290e-01
   6.239137e-01    5.353281e-01
   1.688554e-01    4.446345e-01

  8 0
s     3 1.00
   3.425251e+00    1.543290e-01
   6.239137e-01    5.353281e-01
   1.688554e-01    4.446345e-01

  9 0
s     3 1.00
   3.425251e+00    1.543290e-01
   6.239137e-01    5.353281e-01
   1.688554e-01    4.446345e-01

 10 0
s     3 1.00
   3.425251e+00    1.543290e-01
   6.239137e-01    5.353281e-01
   1.688554e-01    4.446345e-01

 11 0
s     3 1.00
   7.161684e+01    1.543290e-01
   1.304510e+01    5.353281e-01
   3.530512e+00    4.446345e-01
s     3 1.00
   2.941249e+00   -9.996723e-02
   6.834831e-01    3.995128e-01
   2.222899e-01    7.001155e-01
p     3 1.00
   2.941249e+00    1.559163e-01
   6.834831e-01    6.076837e-01
   2.222899e-01    3.919574e-01

 12 0
s     3 1.00
   7.161684e+01    1.543290e-01
   1.304510e+01    5.353281e-01
   3.530512e+00    4.446345e-01
s     3 1.00
   2.941249e+00   -9.996723e-02
   6.834831e-01    3.995128e-01
   2.222899e-01    7.001155e-01
p     3 1.00
   2.941249e+00    1.559163e-01
   6.834831e-01    6.076837e-01
   2.222899e-01    3.919574e-01

 13 0
s     3 1.00
   3.425251e+00    1.543290e-01
   6.239137e-01    5.353281e-01
   1.688554e-01    4.446345e-01

 14 0
s     3 1.00
   3.425251e+00    1.543290e-01
   6.239137e-01    5.353281e-01
   1.688554e-01    4.446345e-01

 15 0
s     3 1.00
   7.161684e+01    1.543290e-01
   1.304510e+01    5.353281e-01
   3.530512e+00    4.446345e-01
s     3 1.00
   2.941249e+00   -9.996723e-02
   6.834831e-01    3.995128e-01
   2.222899e-01    7.001155e-01
p     3 1.00
   2.941249e+00    1.559163e-01
   6.834831e-01    6.076837e-01
   2.222899e-01    3.919574e-01

 16 0
s     3 1.00
   7.161684e+01    1.543290e-01
   1.304510e+01    5.353281e-01
   3.530512e+00    4.446345e-01
s     3 1.00
   2.941249e+00   -9.996723e-02
   6.834831e-01    3.995128e-01
   2.222899e-01    7.001155e-01
p     3 1.00
   2.941249e+00    1.559163e-01
   6.834831e-01    6.076837e-01
   2.222899e-01    3.919574e-01

 17 0
s     3 1.00
   3.425251e+00    1.543290e-01
   6.239137e-01    5.353281e-01
   1.688554e-01    4.446345e-01

 18 0
s     3 1.00
   3.425251e+00    1.543290e-01
   6.239137e-01    5.353281e-01
   1.688554e-01    4.446345e-01

 19 0
s     3 1.00
   3.425251e+00    1.543290e-01
   6.239137e-01    5.353281e-01
   1.688554e-01    4.446345e-01

 20 0
s     3 1.00
   3.425251e+00    1.543290e-01
   6.239137e-01    5.353281e-01
   1.688554e-01    4.446345e-01

[MO]
 Sym= Bu
 Ene=   -10.0162
 Spin= Alpha
 Occup=   2.000000
   1    0.699287
   2    0.031565
   3    0.000916
   4   -0.000022
   5    0.000000
   6   -0.699287
   7   -0.031565
   8    0.000916
   9   -0.000022
  10    0.000000
  11   -0.018595
  12   -0.007725
  13    0.002615
  14    0.003540
  15    0.000000
  16    0.018595
  17    0.007725
  18    0.002615
  19    0.003540
  20    0.000000
  21    0.019254
  22    0.007714
  23    0.001357
  24   -0.004165
  25    0.000000
  26   -0.019254
  27   -0.007714
  28    0.001357
  29   -0.004165
  30    0.000000
  31    0.000333
  32   -0.000333
  33   -0.000333
  34    0.000333
  35    0.027523
  36    0.006726
  37   -0.003974
  38    0.000894
  39    0.000000
  40   -0.027523
  41   -0.006726
  42   -0.003974
  43    0.000894
  44    0.000000
  45   -0.000327
  46    0.000327
  47   -0.000185
  48   -0.000475
  49    0.000283
  50   -0.000004
  51    0.000000
  52    0.000185
  53    0.000475
  54    0.000283
  55   -0.000004
  56    0.000000
  57    0.000149
  58   -0.000149
  59    0.000029
  60   -0.000029
 Sym= Ag
 Ene=   -10.0162
 Spin= Alpha
 Occup=   2.000000
   1   -0.699285
   2   -0.031358
   3   -0.000646
   4   -0.000031
   5    0.000000
   6   -0.699285
   7   -0.031358
   8    0.000646
   9    0.000031
  10    0.000000
  11    0.019068
  12    0.006912
  13   -0.002986
  14   -0.003334
  15    0.000000
  16    0.019068
  17    0.006912
  18    0.002986
  19    0.003334
  20    0.000000
  21    0.019496
  22    0.006880
  23    0.001785
  24   -0.004052
  25    0.000000
  26    0.019496
  27    0.006880
  28   -0.001785
  29    0.004052
  30    0.000000
  31   -0.000220
  32   -0.000220
  33   -0.000223
  34   -0.000223
  35    0.027887
  36    0.006794
  37   -0.004011
  38    0.000901
  39    0.000000
  40    0.027887
  41    0.006794
  42    0.004011
  43   -0.000901
  44    0.000000
  45   -0.000338
  46   -0.000338
  47   -0.000199
  48   -0.000478
  49    0.000290
  50   -0.000003
  51    0.000000
  52   -0.000199
  53   -0.000478
  54   -0.000290
  55    0.000003
  56    0.000000
  57    0.000141
  58    0.000141
  59    0.000028
  60    0.000028
 Sym= Bu
 Ene=   -10.0041
 Spin= Alpha
 Occup=   2.000000
   1   -0.028127
   2    0.004119
   3   -0.004150
   4    0.000658
   5    0.000000
   6    0.028127
   7   -0.004119
   8   -0.004150
   9    0.000658
  10    0.000000
  11    0.008656
  12    0.000530
  13    0.000006
  14   -0.000128
  15    0.000000
  16   -0.008656
  17   -0.000530
  18    0.000006
  19   -0.000128
  20    0.000000
  21   -0.007741
  22   -0.000444
  23    0.000075
  24    0.000135
  25    0.000000
  26    0.007741
  27    0.000444
  28    0.000075
  29    0.000135
  30    0.000000
  31   -0.000076
  32    0.000076
  33   -0.000060
  34    0.000060
  35    0.699821
  36    0.030781
  37    0.001073
  38    0.000740
  39    0.000000
  40   -0.699821
  41   -0.030781
  42    0.001073
  43    0.000740
  44    0.000000
  45   -0.006423
  46    0.006423
  47   -0.008169
  48   -0.007613
  49    0.003433
  50    0.003052
  51    0.000000
  52    0.008169
  53    0.007613
  54    0.003433
  55    0.003052
  56    0.000000
  57    0.000186
  58   -0.000186
  59    0.000216
  60   -0.000216
 Sym= Ag
 Ene=   -10.0041
 Spin= Alpha
 Occup=   2.000000
   1   -0.028333
   2    0.004064
   3   -0.004122
   4    0.000651
   5    0.000000
   6   -0.028333
   7    0.004064
   8    0.004122
   9   -0.000651
  10    0.000000
  11    0.011438
  12    0.000550
  13   -0.000061
  14   -0.000190
  15    0.000000
  16    0.011438
  17    0.000550
  18    0.000061
  19    0.000190
  20    0.000000
  21    0.010393
  22    0.000430
  23   -0.000014
  24   -0.000211
  25    0.000000
  26    0.010393
  27    0.000430
  28    0.000014
  29    0.000211
  30    0.000000
  31   -0.000081
  32   -0.000081
  33    0.000061
  34    0.000061
  35   -0.699740
  36   -0.030763
  37   -0.001083
  38   -0.000738
  39    0.000000
  40   -0.699740
  41   -0.030763
  42    0.001083
  43    0.000738
  44    0.000000
  45    0.006421
  46    0.006421
  47    0.008163
  48    0.007611
  49   -0.003431
  50   -0.003052
  51    0.000000
  52    0.008163
  53    0.007611
  54    0.003431
  55    0.003052
  56    0.000000
  57   -0.000187
  58   -0.000187
  59   -0.000216
  60   -0.000216
 Sym= Bu
 Ene=   -10.0028
 Spin= Alpha
 Occup=   2.000000
   1   -0.027376
   2    0.007810
   3    0.002840
   4   -0.002099
   5    0.000000
   6    0.027376
   7   -0.007810
   8    0.002840
   9   -0.002099
  10    0.000000
  11   -0.317562
  12   -0.019989
  13   -0.004192
  14    0.001048
  15    0.000000
  16    0.317562
  17    0.019989
  18   -0.004192
  19    0.001048
  20    0.000000
  21    0.623271
  22    0.030621
  23   -0.002759
  24   -0.000281
  25    0.000000
  26   -0.623271
  27   -0.030621
  28   -0.002759
  29   -0.000281
  30    0.000000
  31    0.003035
  32   -0.003035
  33   -0.005728
  34    0.005728
  35    0.009815
  36    0.000550
  37    0.000043
  38    0.000053
  39    0.000000
  40   -0.009815
  41   -0.000550
  42    0.000043
  43    0.000053
  44    0.000000
  45   -0.000139
  46    0.000139
  47   -0.000922
  48   -0.000233
  49    0.000122
  50    0.000006
  51    0.000000
  52    0.000922
  53    0.000233
  54    0.000122
  55    0.000006
  56    0.000000
  57    0.000159
  58   -0.000159
  59   -0.000010
  60    0.000010
 Sym= Ag
 Ene=   -10.0028
 Spin= Alpha
 Occup=   2.000000
   1    0.007977
   2   -0.001975
   3    0.000031
   4    0.005172
   5    0.000000
   6    0.007977
   7   -0.001975
   8   -0.000031
   9   -0.005172
  10    0.000000
  11   -0.347094
  12   -0.020988
  13   -0.004001
  14    0.000996
  15    0.000000
  16   -0.347094
  17   -0.020988
  18    0.004001
  19   -0.000996
  20    0.000000
  21    0.607891
  22    0.030010
  23   -0.002741
  24   -0.000052
  25    0.000000
  26    0.607891
  27    0.030010
  28    0.002741
  29    0.000052
  30    0.000000
  31    0.003223
  32    0.003223
  33   -0.005610
  34   -0.005610
  35    0.003045
  36    0.000126
  37    0.000065
  38    0.000113
  39    0.000000
  40    0.003045
  41    0.000126
  42   -0.000065
  43   -0.000113
  44    0.000000
  45   -0.000055
  46   -0.000055
  47   -0.000466
  48   -0.000111
  49    0.000044
  50   -0.000018
  51    0.000000
  52   -0.000466
  53   -0.000111
  54   -0.000044
  55    0.000018
  56    0.000000
  57    0.000161
  58    0.000161
  59   -0.000006
  60   -0.000006
 Sym= Bu
 Ene=   -10.0020
 Spin= Alpha
 Occup=   2.000000
   1    0.008413
   2   -0.002540
   3   -0.001796
   4   -0.004702
   5    0.000000
   6   -0.008413
   7    0.002540
   8   -0.001796
   9   -0.004702
  10    0.000000
  11    0.623985
  12    0.024576
  13   -0.001499
  14   -0.000443
  15    0.000000
  16   -0.623985
  17   -0.024576
  18   -0.001499
  19   -0.000443
  20    0.000000
  21    0.318946
  22    0.008177
  23    0.003554
  24   -0.000886
  25    0.000000
  26   -0.318946
  27   -0.008177
  28    0.003554
  29   -0.000886
  30    0.000000
  31   -0.005543
  32    0.005543
  33   -0.002717
  34    0.002717
  35   -0.003895
  36   -0.000223
  37   -0.000028
  38    0.000002
  39    0.000000
  40    0.003895
  41    0.000223
  42   -0.000028
  43    0.000002
  44    0.000000
  45    0.000068
  46   -0.000068
  47   -0.000050
  48    0.000057
  49   -0.000026
  50   -0.000046
  51    0.000000
  52    0.000050
  53   -0.000057
  54   -0.000026
  55   -0.000046
  56    0.000000
  57    0.000058
  58   -0.000058
  59   -0.000008
  60    0.000008
 Sym= Ag
 Ene=   -10.0019
 Spin= Alpha
 Occup=   2.000000
   1   -0.028211
   2    0.007261
   3    0.003143
   4    0.000884
   5    0.000000
   6   -0.028211
   7    0.007261
   8   -0.003143
   9   -0.000884
  10    0.000000
  11   -0.608051
  12   -0.023452
  13    0.001746
  14    0.000023
  15    0.000000
  16   -0.608051
  17   -0.023452
  18   -0.001746
  19   -0.000023
  20    0.000000
  21   -0.347376
  22   -0.009574
  23   -0.003481
  24    0.000645
  25    0.000000
  26   -0.347376
  27   -0.009574
  28    0.003481
  29   -0.000645
  30    0.000000
  31    0.005557
  32    0.005557
  33    0.003158
  34    0.003158
  35   -0.014056
  36   -0.000613
  37   -0.000172
  38   -0.000004
  39    0.000000
  40   -0.014056
  41   -0.000613
  42    0.000172
  43    0.000004
  44    0.000000
  45    0.000218
  46    0.000218
  47    0.001066
  48    0.000278
  49   -0.000164
  50   -0.000046
  51    0.000000
  52    0.001066
  53    0.000278
  54    0.000164
  55    0.000046
  56    0.000000
  57   -0.000067
  58   -0.000067
  59    0.000011
  60    0.000011
 Sym= Bu
 Ene=    -9.9884
 Spin= Alpha
 Occup=   2.000000
   1   -0.000177
   2   -0.000158
   3    0.000049
   4    0.000023
   5    0.000000
   6    0.000177
   7    0.000158
   8    0.000049
   9    0.000023
  10    0.000000
  11   -0.000287
  12    0.000002
  13   -0.000080
  14   -0.000007
  15    0.000000
  16    0.000287
  17   -0.000002
  18   -0.000080
  19   -0.000007
  20    0.000000
  21    0.000779
  22   -0.000015
  23   -0.000104
  24    0.000006
  25    0.000000
  26   -0.000779
  27    0.000015
  28   -0.000104
  29    0.000006
  30    0.000000
  31    0.000012
  32   -0.000012
  33    0.000100
  34   -0.000100
  35    0.009059
  36   -0.006887
  37   -0.003370
  38   -0.003089
  39    0.000000
  40   -0.009059
  41    0.006887
  42   -0.003370
  43   -0.003089
  44    0.000000
  45    0.000044
  46   -0.000044
  47    0.700477
  48    0.030859
  49   -0.000919
  50   -0.000895
  51    0.000000
  52   -0.700477
  53   -0.030859
  54   -0.000919
  55   -0.000895
  56    0.000000
  57   -0.006354
  58    0.006354
  59   -0.006374
  60    0.006374
 Sym= Ag
 Ene=    -9.9884
 Spin= Alpha
 Occup=   2.000000
   1   -0.000178
   2   -0.000156
   3    0.000048
   4    0.000025
   5    0.000000
   6   -0.000178
   7   -0.000156
   8   -0.000048
   9   -0.000025
  10    0.000000
  11   -0.000584
  12    0.000060
  13   -0.000027
  14   -0.000017
  15    0.000000
  16   -0.000584
  17    0.000060
  18    0.000027
  19    0.000017
  20    0.000000
  21   -0.000841
  22    0.000036
  23    0.000087
  24   -0.000002
  25    0.000000
  26   -0.000841
  27    0.000036
  28   -0.000087
  29    0.000002
  30    0.000000
  31    0.000017
  32    0.000017
  33   -0.000100
  34   -0.000100
  35   -0.009063
  36    0.006886
  37    0.003369
  38    0.003089
  39    0.000000
  40   -0.009063
  41    0.006886
  42   -0.003369
  43   -0.003089
  44    0.000000
  45   -0.000044
  46   -0.000044
  47   -0.700477
  48   -0.030859
  49    0.000919
  50    0.000895
  51    0.000000
  52   -0.700477
  53   -0.030859
  54   -0.000919
  55   -0.000895
  56    0.000000
  57    0.006354
  58    0.006354
  59    0.006374
  60    0.006374
 Sym= Ag
 Ene=    -0.8057
 Spin= Alpha
 Occup=   2.000000
   1    0.107823
   2   -0.274666
   3   -0.040960
   4    0.005308
   5    0.000000
   6    0.107823
   7   -0.274666
   8    0.040960
   9   -0.005308
  10    0.000000
  11    0.097895
  12   -0.247097
  13   -0.014777
  14    0.053039
  15    0.000000
  16    0.097895
  17   -0.247097
  18    0.014777
  19   -0.053039
  20    0.000000
  21    0.097603
  22   -0.246779
  23    0.031281
  24    0.046041
  25    0.000000
  26    0.097603
  27   -0.246779
  28   -0.031281
  29   -0.046041
  30    0.000000
  31   -0.045010
  32   -0.045010
  33   -0.045097
  34   -0.045097
  35    0.049681
  36   -0.127767
  37    0.028534
  38   -0.012640
  39    0.000000
  40    0.049681
  41   -0.127767
  42   -0.028534
  43    0.012640
  44    0.000000
  45   -0.025701
  46   -0.025701
  47    0.024596
  48   -0.062530
  49    0.020246
  50    0.012470
  51    0.000000
  52    0.024596
  53   -0.062530
  54   -0.020246
  55   -0.012470
  56    0.000000
  57   -0.014040
  58   -0.014040
  59   -0.010573
  60   -0.010573
 Sym= Bu
 Ene=    -0.7502
 Spin= Alpha
 Occup=   2.000000
   1   -0.103606
   2    0.273950
   3   -0.032784
   4    0.004433
   5    0.000000
   6    0.103606
   7   -0.273950
   8   -0.032784
   9    0.004433
  10    0.000000
  11   -0.039050
  12    0.102193
  13   -0.058984
  14   -0.027606
  15    0.000000
  16    0.039050
  17   -0.102193
  18   -0.058984
  19   -0.027606
  20    0.000000
  21    0.042782
  22   -0.112499
  23   -0.046708
  24    0.044450
  25    0.000000
  26   -0.042782
  27    0.112499
  28   -0.046708
  29    0.044450
  30    0.000000
  31    0.026952
  32   -0.026952
  33   -0.030464
  34    0.030464
  35    0.113853
  36   -0.297339
  37    0.008717
  38   -0.033858
  39    0.000000
  40   -0.113853
  41    0.297339
  42    0.008717
  43   -0.033858
  44    0.000000
  45   -0.067242
  46    0.067242
  47    0.080664
  48   -0.209219
  49    0.049671
  50    0.037486
  51    0.000000
  52   -0.080664
  53    0.209219
  54    0.049671
  55    0.037486
  56    0.000000
  57   -0.048442
  58    0.048442
  59   -0.043736
  60    0.043736
 Sym= Ag
 Ene=    -0.7142
 Spin= Alpha
 Occup=   2.000000
   1   -0.004662
   2    0.015165
   3   -0.096156
   4    0.010277
   5    0.000000
   6   -0.004662
   7    0.015165
   8    0.096156
   9   -0.010277
  10    0.000000
  11    0.046155
  12   -0.121044
  13   -0.037252
  14    0.015799
  15    0.000000
  16    0.046155
  17   -0.121044
  18    0.037252
  19   -0.015799
  20    0.000000
  21    0.041823
  22   -0.109168
  23    0.047129
  24    0.002313
  25    0.000000
  26    0.041823
  27   -0.109168
  28   -0.047129
  29   -0.002313
  30    0.000000
  31   -0.023193
  32   -0.023193
  33   -0.016902
  34   -0.016902
  35   -0.119306
  36    0.315034
  37    0.057180
  38    0.045288
  39    0.000000
  40   -0.119306
  41    0.315034
  42   -0.057180
  43   -0.045288
  44    0.000000
  45    0.076663
  46    0.076663
  47   -0.117436
  48    0.309765
  49   -0.052518
  50   -0.049276
  51    0.000000
  52   -0.117436
  53    0.309765
  54    0.052518
  55    0.049276
  56    0.000000
  57    0.074095
  58    0.074095
  59    0.074928
  60    0.074928
 Sym= Bu
 Ene=    -0.6960
 Spin= Alpha
 Occup=   2.000000
   1   -0.011974
   2    0.032431
   3    0.021715
   4    0.124992
   5    0.000000
   6    0.011974
   7   -0.032431
   8    0.021715
   9    0.124992
  10    0.000000
  11   -0.132059
  12    0.356444
  13    0.056674
  14    0.004577
  15    0.000000
  16    0.132059
  17   -0.356444
  18    0.056674
  19    0.004577
  20    0.000000
  21   -0.120488
  22    0.325072
  23   -0.065861
  24    0.034078
  25    0.000000
  26    0.120488
  27   -0.325072
  28   -0.065861
  29    0.034078
  30    0.000000
  31    0.098294
  32   -0.098294
  33    0.090304
  34   -0.090304
  35    0.000472
  36   -0.001947
  37    0.017982
  38    0.022894
  39    0.000000
  40   -0.000472
  41    0.001947
  42    0.017982
  43    0.022894
  44    0.000000
  45   -0.010143
  46    0.010143
  47   -0.014076
  48    0.036806
  49   -0.006198
  50    0.001644
  51    0.000000
  52    0.014076
  53   -0.036806
  54   -0.006198
  55    0.001644
  56    0.000000
  57    0.014428
  58   -0.014428
  59    0.008668
  60   -0.008668
 Sym= Bu
 Ene=    -0.6638
 Spin= Alpha
 Occup=   2.000000
   1    0.099661
   2   -0.274062
   3   -0.056803
   4    0.016960
   5    0.000000
   6   -0.099661
   7    0.274062
   8   -0.056803
   9    0.016960
  10    0.000000
  11    0.041391
  12   -0.114396
  13    0.091024
  14    0.038233
  15    0.000000
  16   -0.041391
  17    0.114396
  18    0.091024
  19    0.038233
  20    0.000000
  21   -0.072688
  22    0.200482
  23    0.047363
  24   -0.054094
  25    0.000000
  26    0.072688
  27   -0.200482
  28    0.047363
  29   -0.054094
  30    0.000000
  31   -0.032766
  32    0.032766
  33    0.052753
  34   -0.052753
  35    0.051623
  36   -0.136834
  37   -0.128839
  38   -0.039800
  39    0.000000
  40   -0.051623
  41    0.136834
  42   -0.128839
  43   -0.039800
  44    0.000000
  45   -0.037346
  46    0.037346
  47    0.110366
  48   -0.299772
  49    0.016257
  50    0.034513
  51    0.000000
  52   -0.110366
  53    0.299772
  54    0.016257
  55    0.034513
  56    0.000000
  57   -0.077531
  58    0.077531
  59   -0.090060
  60    0.090060
 Sym= Ag
 Ene=    -0.5850
 Spin= Alpha
 Occup=   2.000000
   1   -0.071097
   2    0.206642
   3   -0.073127
   4    0.119653
   5    0.000000
   6   -0.071097
   7    0.206642
   8    0.073127
   9   -0.119653
  10    0.000000
  11   -0.002421
  12    0.008362
  13   -0.159481
  14   -0.030776
  15    0.000000
  16   -0.002421
  17    0.008362
  18    0.159481
  19    0.030776
  20    0.000000
  21    0.081432
  22   -0.232360
  23    0.024641
  24   -0.065439
  25    0.000000
  26    0.081432
  27   -0.232360
  28   -0.024641
  29    0.065439
  30    0.000000
  31    0.018829
  32    0.018829
  33   -0.105439
  34   -0.105439
  35   -0.052993
  36    0.159400
  37   -0.129743
  38   -0.081781
  39    0.000000
  40   -0.052993
  41    0.159400
  42    0.129743
  43    0.081781
  44    0.000000
  45    0.080270
  46    0.080270
  47    0.084196
  48   -0.242801
  49   -0.038609
  50   -0.035323
  51    0.000000
  52    0.084196
  53   -0.242801
  54    0.038609
  55    0.035323
  56    0.000000
  57   -0.103642
  58   -0.103642
  59   -0.098447
  60   -0.098447
 Sym= Ag
 Ene=    -0.5552
 Spin= Alpha
 Occup=   2.000000
   1    0.054179
   2   -0.160406
   3    0.062094
   4    0.186025
   5    0.000000
   6    0.054179
   7   -0.160406
   8   -0.062094
   9   -0.186025
  10    0.000000
  11   -0.110484
  12    0.326280
  13   -0.038087
  14    0.081923
  15    0.000000
  16   -0.110484
  17    0.326280
  18    0.038087
  19   -0.081923
  20    0.000000
  21    0.057844
  22   -0.171829
  23   -0.170571
  24    0.085653
  25    0.000000
  26    0.057844
  27   -0.171829
  28    0.170571
  29   -0.085653
  30    0.000000
  31    0.169881
  32    0.169881
  33   -0.083380
  34   -0.083380
  35    0.007362
  36   -0.023896
  37    0.076880
  38   -0.047176
  39    0.000000
  40    0.007362
  41   -0.023896
  42   -0.076880
  43    0.047176
  44    0.000000
  45    0.032802
  46    0.032802
  47   -0.037084
  48    0.111210
  49    0.049221
  50   -0.013773
  51    0.000000
  52   -0.037084
  53    0.111210
  54   -0.049221
  55    0.013773
  56    0.000000
  57    0.022210
  58    0.022210
  59    0.066987
  60    0.066987
 Sym= Bu
 Ene=    -0.5280
 Spin= Alpha
 Occup=   2.000000
   1    0.013357
   2   -0.038142
   3   -0.135729
   4    0.053132
   5    0.000000
   6   -0.013357
   7    0.038142
   8   -0.135729
   9    0.053132
  10    0.000000
  11    0.050740
  12   -0.154667
  13    0.005264
  14    0.005482
  15    0.000000
  16   -0.050740
  17    0.154667
  18    0.005264
  19    0.005482
  20    0.000000
  21   -0.030365
  22    0.091952
  23    0.078186
  24   -0.036175
  25    0.000000
  26    0.030365
  27   -0.091952
  28    0.078186
  29   -0.036175
  30    0.000000
  31   -0.050200
  32    0.050200
  33    0.054573
  34   -0.054573
  35    0.098824
  36   -0.302603
  37    0.041198
  38    0.116212
  39    0.000000
  40   -0.098824
  41    0.302603
  42    0.041198
  43    0.116212
  44    0.000000
  45   -0.170632
  46    0.170632
  47   -0.080805
  48    0.249302
  49    0.091407
  50    0.122816
  51    0.000000
  52    0.080805
  53   -0.249302
  54    0.091407
  55    0.122816
  56    0.000000
  57    0.160236
  58   -0.160236
  59    0.124992
  60   -0.124992
 Sym= Ag
 Ene=    -0.5065
 Spin= Alpha
 Occup=   2.000000
   1   -0.054578
   2    0.162246
   3    0.142209
   4    0.020765
   5    0.000000
   6   -0.054578
   7    0.162246
   8   -0.142209
   9   -0.020765
  10    0.000000
  11    0.006457
  12   -0.023821
  13   -0.087771
  14   -0.184054
  15    0.000000
  16    0.006457
  17   -0.023821
  18    0.087771
  19    0.184054
  20    0.000000
  21    0.052566
  22   -0.167028
  23   -0.035421
  24   -0.202314
  25    0.000000
  26    0.052566
  27   -0.167028
  28    0.035421
  29    0.202314
  30    0.000000
  31   -0.098034
  32   -0.098034
  33   -0.169891
  34   -0.169891
  35    0.059201
  36   -0.180957
  37   -0.001934
  38    0.064527
  39    0.000000
  40    0.059201
  41   -0.180957
  42    0.001934
  43   -0.064527
  44    0.000000
  45   -0.112676
  46   -0.112676
  47   -0.051403
  48    0.162983
  49    0.081458
  50    0.079618
  51    0.000000
  52   -0.051403
  53    0.162983
  54   -0.081458
  55   -0.079618
  56    0.000000
  57    0.095044
  58    0.095044
  59    0.096860
  60    0.096860
 Sym= Ag
 Ene=    -0.4536
 Spin= Alpha
 Occup=   2.000000
   1    0.032319
   2   -0.106581
   3    0.133191
   4   -0.050110
   5    0.000000
   6    0.032319
   7   -0.106581
   8   -0.133191
   9    0.050110
  10    0.000000
  11    0.013084
  12   -0.050657
  13    0.141564
  14   -0.136653
  15    0.000000
  16    0.013084
  17   -0.050657
  18   -0.141564
  19    0.136653
  20    0.000000
  21   -0.019350
  22    0.054764
  23   -0.135532
  24   -0.086402
  25    0.000000
  26   -0.019350
  27    0.054764
  28    0.135532
  29    0.086402
  30    0.000000
  31   -0.135975
  32   -0.135975
  33   -0.090952
  34   -0.090952
  35   -0.040026
  36    0.127193
  37    0.185164
  38   -0.114302
  39    0.000000
  40   -0.040026
  41    0.127193
  42   -0.185164
  43    0.114302
  44    0.000000
  45    0.152609
  46    0.152609
  47    0.016785
  48   -0.063070
  49    0.009469
  50   -0.212927
  51    0.000000
  52    0.016785
  53   -0.063070
  54   -0.009469
  55    0.212927
  56    0.000000
  57   -0.179100
  58   -0.179100
  59    0.021708
  60    0.021708
 Sym= Bu
 Ene=    -0.4356
 Spin= Alpha
 Occup=   2.000000
   1   -0.023354
   2    0.080054
   3   -0.133854
   4   -0.125997
   5    0.000000
   6    0.023354
   7   -0.080054
   8   -0.133854
   9   -0.125997
  10    0.000000
  11    0.022306
  12   -0.075128
  13    0.184588
  14   -0.018005
  15    0.000000
  16   -0.022306
  17    0.075128
  18    0.184588
  19   -0.018005
  20    0.000000
  21   -0.042401
  22    0.138339
  23   -0.101502
  24    0.097493
  25    0.000000
  26    0.042401
  27   -0.138339
  28   -0.101502
  29    0.097493
  30    0.000000
  31   -0.100914
  32    0.100914
  33    0.061772
  34   -0.061772
  35    0.016782
  36   -0.051310
  37    0.101232
  38   -0.219400
  39    0.000000
  40   -0.016782
  41    0.051310
  42    0.101232
  43   -0.219400
  44    0.000000
  45    0.156010
  46   -0.156010
  47   -0.008004
  48    0.030902
  49    0.209779
  50   -0.089605
  51    0.000000
  52    0.008004
  53   -0.030902
  54    0.209779
  55   -0.089605
  56    0.000000
  57   -0.072394
  58    0.072394
  59    0.177398
  60   -0.177398
 Sym= Bu
 Ene=    -0.4069
 Spin= Alpha
 Occup=   2.000000
   1   -0.069062
   2    0.234037
   3    0.025793
   4    0.101652
   5    0.000000
   6    0.069062
   7   -0.234037
   8    0.025793
   9    0.101652
  10    0.000000
  11    0.047654
  12   -0.163863
  13   -0.061427
  14   -0.219913
  15    0.000000
  16   -0.047654
  17    0.163863
  18   -0.061427
  19   -0.219913
  20    0.000000
  21   -0.044004
  22    0.152917
  23    0.178632
  24    0.114826
  25    0.000000
  26    0.044004
  27   -0.152917
  28    0.178632
  29    0.114826
  30    0.000000
  31   -0.224704
  32    0.224704
  33    0.231246
  34   -0.231246
  35   -0.015207
  36    0.041881
  37    0.126656
  38    0.041171
  39    0.000000
  40    0.015207
  41   -0.041881
  42    0.126656
  43    0.041171
  44    0.000000
  45    0.025844
  46   -0.025844
  47    0.011866
  48   -0.049679
  49   -0.134830
  50   -0.077601
  51    0.000000
  52   -0.011866
  53    0.049679
  54   -0.134830
  55   -0.077601
  56    0.000000
  57   -0.043686
  58    0.043686
  59   -0.105271
  60    0.105271
 Sym= Bu
 Ene=    -0.3942
 Spin= Alpha
 Occup=   2.000000
   1    0.022774
   2   -0.077412
   3   -0.145587
   4    0.218074
   5    0.000000
   6   -0.022774
   7    0.077412
   8   -0.145587
   9    0.218074
  10    0.000000
  11    0.001108
  12   -0.000916
  13   -0.118981
  14    0.004152
  15    0.000000
  16   -0.001108
  17    0.000916
  18   -0.118981
  19    0.004152
  20    0.000000
  21   -0.011575
  22    0.035943
  23    0.056959
  24   -0.250379
  25    0.000000
  26    0.011575
  27   -0.035943
  28    0.056959
  29   -0.250379
  30    0.000000
  31    0.037998
  32   -0.037998
  33   -0.133640
  34    0.133640
  35    0.002410
  36   -0.014354
  37    0.182158
  38    0.042219