[Molden Format]
[Title]
dvb_td
[Atoms] Angs
C      1  6     1.393152    -0.226579     0.000000
C      2  6    -1.393152     0.226579     0.000000
C      3  6     0.487162    -1.288669     0.000000
C      4  6    -0.487162     1.288669     0.000000
C      5  6    -0.877346    -1.069879     0.000000
C      6  6     0.877346     1.069879     0.000000
H      7  1     0.862988    -2.303989     0.000000
H      8  1    -0.862988     2.303989     0.000000
H      9  1    -1.546106    -1.919558     0.000000
H     10  1     1.546106     1.919558     0.000000
C     11  6    -2.860184     0.520463     0.000000
C     12  6     2.860184    -0.520463     0.000000
H     13  1    -3.101188     1.577811     0.000000
H     14  1     3.101188    -1.577811     0.000000
C     15  6    -3.838871    -0.355714     0.000000
C     16  6     3.838871     0.355714     0.000000
H     17  1    -3.674231    -1.423458     0.000000
H     18  1     3.674231     1.423458     0.000000
H     19  1    -4.873577    -0.042279     0.000000
H     20  1     4.873577     0.042279     0.000000
[GTO]
  1 0
s     3 1.00
   1.722560e+02    6.176691e-02
   2.591090e+01    3.587940e-01
   5.533350e+00    7.007131e-01
s     2 1.00
   3.664980e+00   -3.958952e-01
   7.705450e-01    1.215834e+00
p     2 1.00
   3.664980e+00    2.364599e-01
   7.705450e-01    8.606188e-01
s     1 1.00
   1.958570e-01    1.000000e+00
p     1 1.00
   1.958570e-01    1.000000e+00

  2 0
s     3 1.00
   1.722560e+02    6.176691e-02
   2.591090e+01    3.587940e-01
   5.533350e+00    7.007131e-01
s     2 1.00
   3.664980e+00   -3.958952e-01
   7.705450e-01    1.215834e+00
p     2 1.00
   3.664980e+00    2.364599e-01
   7.705450e-01    8.606188e-01
s     1 1.00
   1.958570e-01    1.000000e+00
p     1 1.00
   1.958570e-01    1.000000e+00

  3 0
s     3 1.00
   1.722560e+02    6.176691e-02
   2.591090e+01    3.587940e-01
   5.533350e+00    7.007131e-01
s     2 1.00
   3.664980e+00   -3.958952e-01
   7.705450e-01    1.215834e+00
p     2 1.00
   3.664980e+00    2.364599e-01
   7.705450e-01    8.606188e-01
s     1 1.00
   1.958570e-01    1.000000e+00
p     1 1.00
   1.958570e-01    1.000000e+00

  4 0
s     3 1.00
   1.722560e+02    6.176691e-02
   2.591090e+01    3.587940e-01
   5.533350e+00    7.007131e-01
s     2 1.00
   3.664980e+00   -3.958952e-01
   7.705450e-01    1.215834e+00
p     2 1.00
   3.664980e+00    2.364599e-01
   7.705450e-01    8.606188e-01
s     1 1.00
   1.958570e-01    1.000000e+00
p     1 1.00
   1.958570e-01    1.000000e+00

  5 0
s     3 1.00
   1.722560e+02    6.176691e-02
   2.591090e+01    3.587940e-01
   5.533350e+00    7.007131e-01
s     2 1.00
   3.664980e+00   -3.958952e-01
   7.705450e-01    1.215834e+00
p     2 1.00
   3.664980e+00    2.364599e-01
   7.705450e-01    8.606188e-01
s     1 1.00
   1.958570e-01    1.000000e+00
p     1 1.00
   1.958570e-01    1.000000e+00

  6 0
s     3 1.00
   1.722560e+02    6.176691e-02
   2.591090e+01    3.587940e-01
   5.533350e+00    7.007131e-01
s     2 1.00
   3.664980e+00   -3.958952e-01
   7.705450e-01    1.215834e+00
p     2 1.00
   3.664980e+00    2.364599e-01
   7.705450e-01    8.606188e-01
s     1 1.00
   1.958570e-01    1.000000e+00
p     1 1.00
   1.958570e-01    1.000000e+00

  7 0
s     2 1.00
   5.447178e+00    1.562850e-01
   8.245472e-01    9.046909e-01
s     1 1.00
   1.831916e-01    1.000000e+00

  8 0
s     2 1.00
   5.447178e+00    1.562850e-01
   8.245472e-01    9.046909e-01
s     1 1.00
   1.831916e-01    1.000000e+00

  9 0
s     2 1.00
   5.447178e+00    1.562850e-01
   8.245472e-01    9.046909e-01
s     1 1.00
   1.831916e-01    1.000000e+00

 10 0
s     2 1.00
   5.447178e+00    1.562850e-01
   8.245472e-01    9.046909e-01
s     1 1.00
   1.831916e-01    1.000000e+00

 11 0
s     3 1.00
   1.722560e+02    6.176691e-02
   2.591090e+01    3.587940e-01
   5.533350e+00    7.007131e-01
s     2 1.00
   3.664980e+00   -3.958952e-01
   7.705450e-01    1.215834e+00
p     2 1.00
   3.664980e+00    2.364599e-01
   7.705450e-01    8.606188e-01
s     1 1.00
   1.958570e-01    1.000000e+00
p     1 1.00
   1.958570e-01    1.000000e+00

 12 0
s     3 1.00
   1.722560e+02    6.176691e-02
   2.591090e+01    3.587940e-01
   5.533350e+00    7.007131e-01
s     2 1.00
   3.664980e+00   -3.958952e-01
   7.705450e-01    1.215834e+00
p     2 1.00
   3.664980e+00    2.364599e-01
   7.705450e-01    8.606188e-01
s     1 1.00
   1.958570e-01    1.000000e+00
p     1 1.00
   1.958570e-01    1.000000e+00

 13 0
s     2 1.00
   5.447178e+00    1.562850e-01
   8.245472e-01    9.046909e-01
s     1 1.00
   1.831916e-01    1.000000e+00

 14 0
s     2 1.00
   5.447178e+00    1.562850e-01
   8.245472e-01    9.046909e-01
s     1 1.00
   1.831916e-01    1.000000e+00

 15 0
s     3 1.00
   1.722560e+02    6.176691e-02
   2.591090e+01    3.587940e-01
   5.533350e+00    7.007131e-01
s     2 1.00
   3.664980e+00   -3.958952e-01
   7.705450e-01    1.215834e+00
p     2 1.00
   3.664980e+00    2.364599e-01
   7.705450e-01    8.606188e-01
s     1 1.00
   1.958570e-01    1.000000e+00
p     1 1.00
   1.958570e-01    1.000000e+00

 16 0
s     3 1.00
   1.722560e+02    6.176691e-02
   2.591090e+01    3.587940e-01
   5.533350e+00    7.007131e-01
s     2 1.00
   3.664980e+00   -3.958952e-01
   7.705450e-01    1.215834e+00
p     2 1.00
   3.664980e+00    2.364599e-01
   7.705450e-01    8.606188e-01
s     1 1.00
   1.958570e-01    1.000000e+00
p     1 1.00
   1.958570e-01    1.000000e+00

 17 0
s     2 1.00
   5.447178e+00    1.562850e-01
   8.245472e-01    9.046909e-01
s     1 1.00
   1.831916e-01    1.000000e+00

 18 0
s     2 1.00
   5.447178e+00    1.562850e-01
   8.245472e-01    9.046909e-01
s     1 1.00
   1.831916e-01    1.000000e+00

 19 0
s     2 1.00
   5.447178e+00    1.562850e-01
   8.245472e-01    9.046909e-01
s     1 1.00
   1.831916e-01    1.000000e+00

 20 0
s     2 1.00
   5.447178e+00    1.562850e-01
   8.245472e-01    9.046909e-01
s     1 1.00
   1.831916e-01    1.000000e+00

[MO]
 Sym= Bu
 Ene=   -10.1362
 Spin= Alpha
 Occup=   2.000000
   1    0.694616
   2    0.079123
   3   -0.000649
   4    0.000083
   5    0.000000
   6   -0.089692
   7    0.015794
   8   -0.003173
   9    0.000000
  10   -0.694616
  11   -0.079123
  12   -0.000649
  13    0.000083
  14    0.000000
  15    0.089692
  16    0.015794
  17   -0.003173
  18    0.000000
  19   -0.036729
  20   -0.007534
  21   -0.001241
  22   -0.001172
  23    0.000000
  24    0.037138
  25    0.004094
  26    0.021878
  27    0.000000
  28    0.036729
  29    0.007534
  30   -0.001241
  31   -0.001172
  32    0.000000
  33   -0.037138
  34    0.004094
  35    0.021878
  36    0.000000
  37    0.034876
  38    0.007377
  39   -0.000822
  40    0.001520
  41    0.000000
  42   -0.037636
  43   -0.002856
  44   -0.022598
  45    0.000000
  46   -0.034876
  47   -0.007377
  48   -0.000822
  49    0.001520
  50    0.000000
  51    0.037636
  52   -0.002856
  53   -0.022598
  54    0.000000
  55    0.000205
  56    0.003025
  57   -0.000205
  58   -0.003025
  59   -0.000100
  60   -0.003451
  61    0.000100
  62    0.003451
  63    0.039225
  64    0.006222
  65    0.000744
  66   -0.000346
  67    0.000000
  68   -0.014131
  69   -0.006371
  70    0.003338
  71    0.000000
  72   -0.039225
  73   -0.006222
  74    0.000744
  75   -0.000346
  76    0.000000
  77    0.014131
  78   -0.006371
  79    0.003338
  80    0.000000
  81    0.000320
  82   -0.000082
  83   -0.000320
  84    0.000082
  85    0.001480
  86    0.000149
  87    0.000299
  88    0.000128
  89    0.000000
  90    0.002231
  91    0.002025
  92   -0.000551
  93    0.000000
  94   -0.001480
  95   -0.000149
  96    0.000299
  97    0.000128
  98    0.000000
  99   -0.002231
 100    0.002025
 101   -0.000551
 102    0.000000
 103   -0.000366
 104   -0.000100
 105    0.000366
 106    0.000100
 107    0.000172
 108    0.000206
 109   -0.000172
 110   -0.000206
 Sym= Ag
 Ene=   -10.1361
 Spin= Alpha
 Occup=   2.000000
   1    0.694121
   2    0.077966
   3   -0.000222
   4    0.000004
   5    0.000000
   6   -0.071655
   7    0.002311
   8   -0.001015
   9    0.000000
  10    0.694121
  11    0.077966
  12    0.000222
  13   -0.000004
  14    0.000000
  15   -0.071655
  16   -0.002311
  17    0.001015
  18    0.000000
  19   -0.038658
  20   -0.007164
  21   -0.000308
  22   -0.001306
  23    0.000000
  24    0.020701
  25    0.005596
  26    0.007758
  27    0.000000
  28   -0.038658
  29   -0.007164
  30    0.000308
  31    0.001306
  32    0.000000
  33    0.020701
  34   -0.005596
  35   -0.007758
  36    0.000000
  37   -0.035721
  38   -0.006726
  39   -0.000065
  40   -0.001380
  41    0.000000
  42    0.019719
  43   -0.004080
  44    0.010149
  45    0.000000
  46   -0.035721
  47   -0.006726
  48    0.000065
  49    0.001380
  50    0.000000
  51    0.019719
  52    0.004080
  53   -0.010149
  54    0.000000
  55   -0.000672
  56    0.000496
  57   -0.000672
  58    0.000496
  59   -0.000767
  60    0.001023
  61   -0.000767
  62    0.001023
  63   -0.041165
  64   -0.006643
  65   -0.000680
  66    0.000356
  67    0.000000
  68    0.018587
  69    0.008919
  70   -0.004102
  71    0.000000
  72   -0.041165
  73   -0.006643
  74    0.000680
  75   -0.000356
  76    0.000000
  77    0.018587
  78   -0.008919
  79    0.004102
  80    0.000000
  81   -0.000349
  82    0.000295
  83   -0.000349
  84    0.000295
  85   -0.001729
  86   -0.000234
  87   -0.000308
  88   -0.000173
  89    0.000000
  90   -0.002095
  91   -0.002363
  92    0.001024
  93    0.000000
  94   -0.001729
  95   -0.000234
  96    0.000308
  97    0.000173
  98    0.000000
  99   -0.002095
 100    0.002363
 101   -0.001024
 102    0.000000
 103    0.000473
 104    0.000227
 105    0.000473
 106    0.000227
 107   -0.000242
 108   -0.000320
 109   -0.000242
 110   -0.000320
 Sym= Bu
 Ene=   -10.1274
 Spin= Alpha
 Occup=   2.000000
   1   -0.036855
   2   -0.002202
   3    0.001385
   4    0.000226
   5    0.000000
   6   -0.012447
   7   -0.015908
   8   -0.004173
   9    0.000000
  10    0.036855
  11    0.002202
  12    0.001385
  13    0.000226
  14    0.000000
  15    0.012447
  16   -0.015908
  17   -0.004173
  18    0.000000
  19    0.021093
  20    0.002696
  21    0.000450
  22   -0.000176
  23    0.000000
  24   -0.008217
  25   -0.001566
  26   -0.001876
  27    0.000000
  28   -0.021093
  29   -0.002696
  30    0.000450
  31   -0.000176
  32    0.000000
  33    0.008217
  34   -0.001566
  35   -0.001876
  36    0.000000
  37   -0.019430
  38   -0.002263
  39    0.000710
  40   -0.000387
  41    0.000000
  42    0.000029
  43    0.001833
  44   -0.000025
  45    0.000000
  46    0.019430
  47    0.002263
  48    0.000710
  49   -0.000387
  50    0.000000
  51   -0.000029
  52    0.001833
  53   -0.000025
  54    0.000000
  55    0.000069
  56    0.001138
  57   -0.000069
  58   -0.001138
  59    0.000302
  60   -0.000351
  61   -0.000302
  62    0.000351
  63    0.695181
  64    0.077047
  65   -0.000153
  66   -0.000862
  67    0.000000
  68   -0.067435
  69   -0.001582
  70    0.012616
  71    0.000000
  72   -0.695181
  73   -0.077047
  74   -0.000153
  75   -0.000862
  76    0.000000
  77    0.067435
  78   -0.001582
  79    0.012616
  80    0.000000
  81   -0.001677
  82    0.006807
  83    0.001677
  84   -0.006807
  85   -0.023119
  86   -0.006072
  87   -0.001726
  88   -0.001221
  89    0.000000
  90    0.026117
  91    0.012988
  92    0.004948
  93    0.000000
  94    0.023119
  95    0.006072
  96   -0.001726
  97   -0.001221
  98    0.000000
  99   -0.026117
 100    0.012988
 101    0.004948
 102    0.000000
 103   -0.001439
 104   -0.001320
 105    0.001439
 106    0.001320
 107   -0.000286
 108    0.001991
 109    0.000286
 110   -0.001991
 Sym= Ag
 Ene=   -10.1274
 Spin= Alpha
 Occup=   2.000000
   1    0.037050
   2    0.002270
   3   -0.001200
   4   -0.000315
   5   -0.000000
   6    0.010044
   7    0.016884
   8    0.007851
   9   -0.000000
  10    0.037050
  11    0.002270
  12    0.001200
  13    0.000315
  14   -0.000000
  15    0.010044
  16   -0.016884
  17   -0.007851
  18   -0.000000
  19   -0.046716
  20   -0.006382
  21   -0.000142
  22   -0.000269
  23   -0.000000
  24    0.011670
  25    0.002509
  26    0.006692
  27   -0.000000
  28   -0.046716
  29   -0.006382
  30    0.000142
  31    0.000269
  32   -0.000000
  33    0.011670
  34   -0.002509
  35   -0.006692
  36   -0.000000
  37   -0.022198
  38   -0.002737
  39    0.000335
  40   -0.000343
  41   -0.000000
  42   -0.002795
  43    0.003099
  44   -0.001683
  45   -0.000000
  46   -0.022198
  47   -0.002737
  48   -0.000335
  49    0.000343
  50   -0.000000
  51   -0.002795
  52   -0.003099
  53    0.001683
  54   -0.000000
  55    0.000327
  56    0.000307
  57    0.000327
  58    0.000307
  59    0.000306
  60    0.000256
  61    0.000306
  62    0.000256
  63    0.693841
  64    0.076839
  65   -0.000235
  66   -0.000926
  67   -0.000000
  68   -0.067424
  69   -0.000398
  70    0.013990
  71   -0.000000
  72    0.693841
  73    0.076839
  74    0.000235
  75    0.000926
  76   -0.000000
  77   -0.067424
  78    0.000398
  79   -0.013990
  80   -0.000000
  81   -0.001801
  82    0.006301
  83   -0.001801
  84    0.006301
  85   -0.023163
  86   -0.006103
  87   -0.001654
  88   -0.001196
  89   -0.000000
  90    0.027401
  91    0.013255
  92    0.005377
  93   -0.000000
  94   -0.023163
  95   -0.006103
  96    0.001654
  97    0.001196
  98   -0.000000
  99    0.027401
 100   -0.013255
 101   -0.005377
 102   -0.000000
 103   -0.001420
 104   -0.001370
 105   -0.001420
 106   -0.001370
 107   -0.000343
 108    0.001935
 109   -0.000343
 110    0.001935
 Sym= Ag
 Ene=   -10.1251
 Spin= Alpha
 Occup=   2.000000
   1    0.011843
   2    0.000433
   3    0.000625
   4    0.001382
   5    0.000000
   6    0.004029
   7   -0.005106
   8   -0.022193
   9    0.000000
  10    0.011843
  11    0.000433
  12   -0.000625
  13   -0.001382
  14    0.000000
  15    0.004029
  16    0.005106
  17    0.022193
  18    0.000000
  19    0.565238
  20    0.065049
  21   -0.000972
  22    0.001336
  23    0.000000
  24   -0.070826
  25    0.006243
  26   -0.017883
  27    0.000000
  28    0.565238
  29    0.065049
  30    0.000972
  31   -0.001336
  32    0.000000
  33   -0.070826
  34   -0.006243
  35    0.017883
  36    0.000000
  37   -0.407634
  38   -0.048797
  39   -0.001570
  40   -0.001156
  41    0.000000
  42    0.061614
  43    0.012404
  44    0.013979
  45    0.000000
  46   -0.407634
  47   -0.048797
  48    0.001570
  49    0.001156
  50    0.000000
  51    0.061614
  52   -0.012404
  53   -0.013979
  54    0.000000
  55   -0.001434
  56    0.003323
  57   -0.001434
  58    0.003323
  59    0.000977
  60   -0.001280
  61    0.000977
  62   -0.001280
  63    0.024018
  64    0.002095
  65    0.000058
  66    0.000174
  67    0.000000
  68    0.000100
  69   -0.002851
  70   -0.006435
  71    0.000000
  72    0.024018
  73    0.002095
  74   -0.000058
  75   -0.000174
  76    0.000000
  77    0.000100
  78    0.002851
  79    0.006435
  80    0.000000
  81    0.000629
  82    0.001774
  83    0.000629
  84    0.001774
  85   -0.004416
  86   -0.000852
  87   -0.000678
  88   -0.000215
  89    0.000000
  90   -0.004025
  91    0.000338
  92   -0.000928
  93    0.000000
  94   -0.004416
  95   -0.000852
  96    0.000678
  97    0.000215
  98    0.000000
  99   -0.004025
 100   -0.000338
 101    0.000928
 102    0.000000
 103   -0.000231
 104    0.000781
 105   -0.000231
 106    0.000781
 107    0.000215
 108    0.000906
 109    0.000215
 110    0.000906
 Sym= Bu
 Ene=   -10.1251
 Spin= Alpha
 Occup=   2.000000
   1    0.050034
   2    0.000676
   3    0.001258
   4    0.000312
   5    0.000000
   6    0.049420
   7   -0.037451
   8    0.003734
   9    0.000000
  10   -0.050034
  11   -0.000676
  12    0.001258
  13    0.000312
  14    0.000000
  15   -0.049420
  16   -0.037451
  17    0.003734
  18    0.000000
  19    0.596142
  20    0.069155
  21   -0.001501
  22    0.000989
  23    0.000000
  24   -0.094925
  25    0.018892
  26   -0.031765
  27    0.000000
  28   -0.596142
  29   -0.069155
  30   -0.001501
  31    0.000989
  32    0.000000
  33    0.094925
  34    0.018892
  35   -0.031765
  36    0.000000
  37   -0.358101
  38   -0.043589
  39   -0.002069
  40    0.000153
  41    0.000000
  42    0.080653
  43    0.029622
  44    0.021743
  45    0.000000
  46    0.358101
  47    0.043589
  48   -0.002069
  49    0.000153
  50    0.000000
  51   -0.080653
  52    0.029622
  53    0.021743
  54    0.000000
  55   -0.002338
  56   -0.000597
  57    0.002338
  58    0.000597
  59    0.001734
  60    0.003008
  61   -0.001734
  62   -0.003008
  63   -0.025254
  64   -0.002307
  65   -0.000148
  66    0.000122
  67    0.000000
  68   -0.009426
  69   -0.005377
  70    0.001189
  71    0.000000
  72    0.025254
  73    0.002307
  74   -0.000148
  75    0.000122
  76    0.000000
  77    0.009426
  78   -0.005377
  79    0.001189
  80    0.000000
  81    0.000170
  82   -0.000063
  83   -0.000170
  84    0.000063
  85    0.002840
  86    0.000627
  87    0.000146
  88    0.000163
  89    0.000000
  90   -0.001150
  91    0.000121
  92   -0.000636
  93    0.000000
  94   -0.002840
  95   -0.000627
  96    0.000146
  97    0.000163
  98    0.000000
  99    0.001150
 100    0.000121
 101   -0.000636
 102    0.000000
 103   -0.000137
 104    0.000366
 105    0.000137
 106   -0.000366
 107    0.000123
 108   -0.000016
 109   -0.000123
 110    0.000016
 Sym= Bu
 Ene=   -10.1238
 Spin= Alpha
 Occup=   2.000000
   1   -0.011041
   2   -0.000017
   3    0.000067
   4    0.002358
   5    0.000000
   6   -0.012153
   7    0.007360
   8   -0.014310
   9    0.000000
  10    0.011041
  11    0.000017
  12    0.000067
  13    0.002358
  14    0.000000
  15    0.012153
  16    0.007360
  17   -0.014310
  18    0.000000
  19    0.359475
  20    0.037422
  21    0.001367
  22    0.000676
  23    0.000000
  24   -0.008373
  25   -0.010812
  26    0.003602
  27    0.000000
  28   -0.359475
  29   -0.037422
  30    0.001367
  31    0.000676
  32    0.000000
  33    0.008373
  34   -0.010812
  35    0.003602
  36    0.000000
  37    0.597152
  38    0.065575
  39   -0.000102
  40    0.001090
  41    0.000000
  42   -0.053285
  43   -0.003784
  44   -0.010983
  45    0.000000
  46   -0.597152
  47   -0.065575
  48   -0.000102
  49    0.001090
  50    0.000000
  51    0.053285
  52   -0.003784
  53   -0.010983
  54    0.000000
  55   -0.000810
  56    0.005878
  57    0.000810
  58   -0.005878
  59   -0.001899
  60    0.005354
  61    0.001899
  62   -0.005354
  63    0.005220
  64    0.000447
  65    0.000160
  66    0.000509
  67    0.000000
  68    0.003626
  69    0.000798
  70   -0.001134
  71    0.000000
  72   -0.005220
  73   -0.000447
  74    0.000160
  75    0.000509
  76    0.000000
  77   -0.003626
  78    0.000798
  79   -0.001134
  80    0.000000
  81    0.000038
  82    0.000660
  83   -0.000038
  84   -0.000660
  85   -0.000130
  86    0.000080
  87   -0.000068
  88    0.000060
  89    0.000000
  90   -0.000911
  91   -0.001003
  92   -0.000657
  93    0.000000
  94    0.000130
  95   -0.000080
  96   -0.000068
  97    0.000060
  98    0.000000
  99    0.000911
 100   -0.001003
 101   -0.000657
 102    0.000000
 103    0.000177
 104   -0.000904
 105   -0.000177
 106    0.000904
 107   -0.000059
 108   -0.000150
 109    0.000059
 110    0.000150
 Sym= Ag
 Ene=   -10.1234
 Spin= Alpha
 Occup=   2.000000
   1    0.053785
   2    0.001894
   3    0.002510
   4   -0.000906
   5   -0.000000
   6    0.016231
   7   -0.018638
   8    0.010874
   9   -0.000000
  10    0.053785
  11    0.001894
  12   -0.002510
  13    0.000906
  14   -0.000000
  15    0.016231
  16    0.018638
  17   -0.010874
  18   -0.000000
  19    0.403543
  20    0.041235
  21    0.000702
  22   -0.000820
  23   -0.000000
  24   -0.016890
  25   -0.003609
  26   -0.000738
  27   -0.000000
  28    0.403543
  29    0.041235
  30   -0.000702
  31    0.000820
  32   -0.000000
  33   -0.016890
  34    0.003609
  35    0.000738
  36   -0.000000
  37    0.564107
  38    0.060493
  39   -0.000249
  40   -0.000224
  41   -0.000000
  42   -0.044962
  43   -0.000958
  44   -0.009699
  45   -0.000000
  46    0.564107
  47    0.060493
  48    0.000249
  49    0.000224
  50   -0.000000
  51   -0.044962
  52    0.000958
  53    0.009699
  54   -0.000000
  55   -0.001454
  56    0.005377
  57   -0.001454
  58    0.005377
  59   -0.001993
  60    0.006084
  61   -0.001993
  62    0.006084
  63    0.041841
  64    0.003185
  65   -0.000732
  66   -0.000021
  67   -0.000000
  68    0.003749
  69    0.011087
  70    0.002443
  71   -0.000000
  72    0.041841
  73    0.003185
  74    0.000732
  75    0.000021
  76   -0.000000
  77    0.003749
  78   -0.011087
  79   -0.002443
  80   -0.000000
  81   -0.000699
  82    0.000757
  83   -0.000699
  84    0.000757
  85   -0.007938
  86   -0.001636
  87   -0.000277
  88   -0.000053
  89   -0.000000
  90    0.007430
  91    0.002064
  92    0.003207
  93   -0.000000
  94   -0.007938
  95   -0.001636
  96    0.000277
  97    0.000053
  98   -0.000000
  99    0.007430
 100   -0.002064
 101   -0.003207
 102   -0.000000
 103    0.000011
 104   -0.000003
 105    0.000011
 106   -0.000003
 107   -0.000382
 108    0.000228
 109   -0.000382
 110    0.000228
 Sym= Bu
 Ene=   -10.1136
 Spin= Alpha
 Occup=   2.000000
   1   -0.002960
   2   -0.000156
   3    0.000560
   4    0.000360
   5    0.000000
   6    0.001068
   7   -0.000353
   8   -0.001435
   9    0.000000
  10    0.002960
  11    0.000156
  12    0.000560
  13    0.000360
  14    0.000000
  15   -0.001068
  16   -0.000353
  17   -0.001435
  18    0.000000
  19   -0.001529
  20    0.000016
  21    0.000395
  22    0.000002
  23    0.000000
  24    0.000672
  25   -0.004610
  26    0.000073
  27    0.000000
  28    0.001529
  29   -0.000016
  30    0.000395
  31    0.000002
  32    0.000000
  33   -0.000672
  34   -0.004610
  35    0.000073
  36    0.000000
  37    0.000900
  38    0.000234
  39    0.000303
  40    0.000032
  41    0.000000
  42   -0.003445
  43   -0.002748
  44   -0.000242
  45    0.000000
  46   -0.000900
  47   -0.000234
  48    0.000303
  49    0.000032
  50    0.000000
  51    0.003445
  52   -0.002748
  53   -0.000242
  54    0.000000
  55    0.000328
  56    0.000308
  57   -0.000328
  58   -0.000308
  59    0.000078
  60   -0.001393
  61   -0.000078
  62    0.001393
  63    0.022878
  64   -0.000915
  65    0.002050
  66    0.001806
  67    0.000000
  68    0.020205
  69   -0.009625
  70   -0.008306
  71    0.000000
  72   -0.022878
  73    0.000915
  74    0.002050
  75    0.001806
  76    0.000000
  77   -0.020205
  78   -0.009625
  79   -0.008306
  80    0.000000
  81   -0.000743
  82    0.001009
  83    0.000743
  84   -0.001009
  85    0.696452
  86    0.075419
  87    0.000101
  88    0.000085
  89    0.000000
  90   -0.057241
  91   -0.005077
  92   -0.004719
  93    0.000000
  94   -0.696452
  95   -0.075419
  96    0.000101
  97    0.000085
  98    0.000000
  99    0.057241
 100   -0.005077
 101   -0.004719
 102    0.000000
 103   -0.001449
 104    0.009990
 105    0.001449
 106   -0.009990
 107   -0.001310
 108    0.009842
 109    0.001310
 110   -0.009842
 Sym= Ag
 Ene=   -10.1136
 Spin= Alpha
 Occup=   2.000000
   1    0.003684
   2    0.000153
   3   -0.000557
   4   -0.000378
   5    0.000000
   6   -0.001193
   7    0.002053
   8    0.003873
   9    0.000000
  10    0.003684
  11    0.000153
  12    0.000557
  13    0.000378
  14    0.000000
  15   -0.001193
  16   -0.002053
  17   -0.003873
  18    0.000000
  19    0.006383
  20   -0.000053
  21   -0.000194
  22   -0.000176
  23    0.000000
  24    0.003038
  25    0.003768
  26    0.003054
  27    0.000000
  28    0.006383
  29   -0.000053
  30    0.000194
  31    0.000176
  32    0.000000
  33    0.003038
  34   -0.003768
  35   -0.003054
  36    0.000000
  37    0.002962
  38    0.000163
  39    0.000221
  40    0.000170
  41    0.000000
  42    0.000369
  43    0.001051
  44   -0.002874
  45    0.000000
  46    0.002962
  47    0.000163
  48   -0.000221
  49   -0.000170
  50    0.000000
  51    0.000369
  52   -0.001051
  53    0.002874
  54    0.000000
  55   -0.000232
  56    0.000905
  57   -0.000232
  58    0.000905
  59   -0.000132
  60   -0.001501
  61   -0.000132
  62   -0.001501
  63    0.023384
  64   -0.000862
  65    0.001928
  66    0.001767
  67    0.000000
  68    0.018922
  69   -0.009067
  70   -0.007013
  71    0.000000
  72    0.023384
  73   -0.000862
  74   -0.001928
  75   -0.001767
  76    0.000000
  77    0.018922
  78    0.009067
  79    0.007013
  80    0.000000
  81   -0.000833
  82    0.000694
  83   -0.000833
  84    0.000694
  85    0.696386
  86    0.075346
  87    0.000095
  88    0.000121
  89    0.000000
  90   -0.056080
  91   -0.004365
  92   -0.004374
  93    0.000000
  94    0.696386
  95    0.075346
  96   -0.000095
  97   -0.000121
  98    0.000000
  99   -0.056080
 100    0.004365
 101    0.004374
 102    0.000000
 103   -0.001539
 104    0.010143
 105   -0.001539
 106    0.010143
 107   -0.001313
 108    0.010007
 109   -0.001313
 110    0.010007
 Sym= Ag
 Ene=    -0.8695
 Spin= Alpha
 Occup=   2.000000
   1   -0.101614
   2    0.110349
   3   -0.045914
   4    0.007516
   5    0.000000
   6    0.190722
   7   -0.001759
   8   -0.010703
   9    0.000000
  10   -0.101614
  11    0.110349
  12    0.045914
  13   -0.007516
  14    0.000000
  15    0.190722
  16    0.001759
  17    0.010703
  18    0.000000
  19   -0.092734
  20    0.102510
  21   -0.015159
  22    0.054285
  23    0.000000
  24    0.159956
  25   -0.009164
  26    0.010669
  27    0.000000
  28   -0.092734
  29    0.102510
  30    0.015159
  31   -0.054285
  32    0.000000
  33    0.159956
  34    0.009164
  35   -0.010669
  36    0.000000
  37   -0.092579
  38    0.101280
  39    0.031833
  40    0.046702
  41    0.000000
  42    0.172117
  43    0.008876
  44    0.016374
  45    0.000000
  46   -0.092579
  47    0.101280
  48   -0.031833
  49   -0.046702
  50    0.000000
  51    0.172117
  52   -0.008876
  53   -0.016374
  54    0.000000
  55    0.031934
  56   -0.001176
  57    0.031934
  58   -0.001176
  59    0.032004
  60   -0.000748
  61    0.032004
  62   -0.000748
  63   -0.040899
  64    0.045403
  65    0.020637
  66   -0.011424
  67    0.000000
  68    0.070048
  69   -0.007866
  70   -0.004861
  71    0.000000
  72   -0.040899
  73    0.045403
  74   -0.020637
  75    0.011424
  76    0.000000
  77    0.070048
  78    0.007866
  79    0.004861
  80    0.000000
  81    0.017226
  82    0.000147
  83    0.017226
  84    0.000147
  85   -0.019499
  86    0.022463
  87    0.017082
  88    0.009117
  89    0.000000
  90    0.026943
  91   -0.001893
  92   -0.002182
  93    0.000000
  94   -0.019499
  95    0.022463
  96   -0.017082
  97   -0.009117
  98    0.000000
  99    0.026943
 100    0.001893
 101    0.002182
 102    0.000000
 103    0.008706
 104    0.002080
 105    0.008706
 106    0.002080
 107    0.006468
 108   -0.002914
 109    0.006468
 110   -0.002914
 Sym= Bu
 Ene=    -0.8064
 Spin= Alpha
 Occup=   2.000000
   1    0.098675
   2   -0.105986
   3   -0.021837
   4    0.000015
   5   -0.000000
   6   -0.198786
   7   -0.013976
   8    0.011530
   9   -0.000000
  10   -0.098675
  11    0.105986
  12   -0.021837
  13    0.000015
  14   -0.000000
  15    0.198786
  16   -0.013976
  17    0.011530
  18   -0.000000
  19    0.037358
  20   -0.039425
  21   -0.049945
  22   -0.023783
  23   -0.000000
  24   -0.090381
  25    0.014363
  26   -0.012663
  27   -0.000000
  28   -0.037358
  29    0.039425
  30   -0.049945
  31   -0.023783
  32   -0.000000
  33    0.090381
  34    0.014363
  35   -0.012663
  36   -0.000000
  37   -0.041981
  38    0.043421
  39   -0.038687
  40    0.038525
  41   -0.000000
  42    0.113622
  43    0.011672
  44    0.012471
  45   -0.000000
  46    0.041981
  47   -0.043421
  48   -0.038687
  49    0.038525
  50   -0.000000
  51   -0.113622
  52    0.011672
  53    0.012471
  54   -0.000000
  55   -0.019720
  56   -0.009984
  57    0.019720
  58    0.009984
  59    0.021795
  60    0.010339
  61   -0.021795
  62   -0.010339
  63   -0.105732
  64    0.114269
  65    0.001537
  66   -0.035269
  67   -0.000000
  68    0.211301
  69    0.002253
  70   -0.007172
  71   -0.000000
  72    0.105732
  73   -0.114269
  74    0.001537
  75   -0.035269
  76   -0.000000
  77   -0.211301
  78    0.002253
  79   -0.007172
  80   -0.000000
  81    0.046920
  82    0.003619
  83   -0.046920
  84   -0.003619
  85   -0.074325
  86    0.081337
  87    0.047919
  88    0.034671
  89   -0.000000
  90    0.147660
  91    0.003590
  92    0.005233
  93   -0.000000
  94    0.074325
  95   -0.081337
  96    0.047919
  97    0.034671
  98   -0.000000
  99   -0.147660
 100    0.003590
 101    0.005233
 102   -0.000000
 103    0.032912
 104    0.003626
 105   -0.032912
 106   -0.003626
 107    0.029199
 108   -0.002836
 109   -0.029199
 110    0.002836
 Sym= Ag
 Ene=    -0.7716
 Spin= Alpha
 Occup=   2.000000
   1   -0.007907
   2    0.007743
   3    0.077746
   4   -0.004921
   5    0.000000
   6    0.018534
   7    0.006292
   8   -0.014482
   9    0.000000
  10   -0.007907
  11    0.007743
  12   -0.077746
  13    0.004921
  14    0.000000
  15    0.018534
  16   -0.006292
  17    0.014482
  18    0.000000
  19    0.039537
  20   -0.040890
  21    0.032219
  22   -0.016177
  23    0.000000
  24   -0.094625
  25   -0.001717
  26   -0.017369
  27    0.000000
  28    0.039537
  29   -0.040890
  30   -0.032219
  31    0.016177
  32    0.000000
  33   -0.094625
  34    0.001717
  35    0.017369
  36    0.000000
  37    0.034606
  38   -0.036974
  39   -0.041166
  40   -0.003977
  41    0.000000
  42   -0.074377
  43   -0.021125
  44    0.002754
  45    0.000000
  46    0.034606
  47   -0.036974
  48    0.041166
  49    0.003977