[Molden Format]
[Title]
MoOCl4-sp
[Atoms] Angs
Mo     1 42     0.000325    -0.000325     0.051810
O      2  8     0.000206    -0.000206     1.741504
Cl     3 17     1.711727    -1.711727    -0.659846
Cl     4 17    -1.710992    -1.711738    -0.660079
Cl     5 17    -1.711004     1.711004    -0.660311
Cl     6 17     1.711738     1.710992    -0.660079
[GTO]
  1 0
s     3 1.00
   2.361000e+00   -9.121760e-01
   1.309000e+00    1.147745e+00
   4.500000e-01    6.097109e-01
s     4 1.00
   2.361000e+00    8.139258e-01
   1.309000e+00   -1.136008e+00
   4.500000e-01   -1.161159e+00
   1.681000e-01    1.006479e+00
s     1 1.00
   4.230000e-02    1.000000e+00
p     3 1.00
   4.895000e+00   -9.082580e-02
   1.044000e+00    7.042899e-01
   3.877000e-01    3.973179e-01
p     2 1.00
   4.995000e-01   -1.081945e-01
   7.800000e-02    1.036809e+00
p     1 1.00
   2.470000e-02    1.000000e+00
d     3 1.00
   2.993000e+00    5.270630e-02
   1.063000e+00    5.003907e-01
   3.721000e-01    5.794024e-01
d     1 1.00
   1.178000e-01    1.000000e+00

  2 0
s     6 1.00
   5.484672e+03    1.831100e-03
   8.252350e+02    1.395010e-02
   1.880470e+02    6.844509e-02
   5.296450e+01    2.327143e-01
   1.689757e+01    4.701930e-01
   5.799635e+00    3.585209e-01
s     3 1.00
   1.553962e+01   -1.107775e-01
   3.599934e+00   -1.480263e-01
   1.013762e+00    1.130767e+00
p     3 1.00
   1.553962e+01    7.087430e-02
   3.599934e+00    3.397528e-01
   1.013762e+00    7.271586e-01
s     1 1.00
   2.700058e-01    1.000000e+00
p     1 1.00
   2.700058e-01    1.000000e+00
d     1 1.00
   8.000000e-01    1.000000e+00

  3 0
s     2 1.00
   2.231000e+00   -4.900589e-01
   4.720000e-01    1.254268e+00
s     1 1.00
   1.631000e-01    1.000000e+00
p     2 1.00
   6.296000e+00   -6.356410e-02
   6.333000e-01    1.014135e+00
p     1 1.00
   1.819000e-01    1.000000e+00

  4 0
s     2 1.00
   2.231000e+00   -4.900589e-01
   4.720000e-01    1.254268e+00
s     1 1.00
   1.631000e-01    1.000000e+00
p     2 1.00
   6.296000e+00   -6.356410e-02
   6.333000e-01    1.014135e+00
p     1 1.00
   1.819000e-01    1.000000e+00

  5 0
s     2 1.00
   2.231000e+00   -4.900589e-01
   4.720000e-01    1.254268e+00
s     1 1.00
   1.631000e-01    1.000000e+00
p     2 1.00
   6.296000e+00   -6.356410e-02
   6.333000e-01    1.014135e+00
p     1 1.00
   1.819000e-01    1.000000e+00

  6 0
s     2 1.00
   2.231000e+00   -4.900589e-01
   4.720000e-01    1.254268e+00
s     1 1.00
   1.631000e-01    1.000000e+00
p     2 1.00
   6.296000e+00   -6.356410e-02
   6.333000e-01    1.014135e+00
p     1 1.00
   1.819000e-01    1.000000e+00

[MO]
 Sym= A
 Ene=   -18.8889
 Spin= Alpha
 Occup=   2.000000
   1    0.000370
   2    0.000248
   3   -0.000035
   4    0.000000
   5   -0.000000
   6   -0.000294
   7    0.000000
   8   -0.000000
   9   -0.002443
  10   -0.000000
  11    0.000000
  12    0.000211
  13   -0.000570
  14   -0.000570
  15   -0.000084
  16    0.000000
  17   -0.000000
  18    0.000000
  19    0.000270
  20    0.000270
  21   -0.001830
  22   -0.000000
  23    0.000000
  24   -0.000000
  25    0.992721
  26    0.025581
  27    0.000000
  28   -0.000000
  29   -0.000451
  30    0.013065
  31    0.000000
  32   -0.000000
  33   -0.000371
  34   -0.008203
  35   -0.008203
  36   -0.008242
  37    0.000000
  38    0.000000
  39   -0.000000
  40    0.000027
  41   -0.000273
  42   -0.000016
  43    0.000016
  44   -0.000053
  45    0.000134
  46   -0.000134
  47    0.000122
  48    0.000027
  49   -0.000272
  50    0.000016
  51    0.000016
  52   -0.000053
  53   -0.000134
  54   -0.000134
  55    0.000122
  56    0.000027
  57   -0.000272
  58    0.000016
  59   -0.000016
  60   -0.000053
  61   -0.000134
  62    0.000134
  63    0.000122
  64    0.000027
  65   -0.000272
  66   -0.000016
  67   -0.000016
  68   -0.000053
  69    0.000134
  70    0.000134
  71    0.000122
 Sym= A
 Ene=    -2.2169
 Spin= Alpha
 Occup=   2.000000
   1    1.049629
   2    0.013576
   3    0.003219
   4   -0.000000
   5    0.000000
   6    0.009275
   7    0.000000
   8   -0.000000
   9   -0.005385
  10   -0.000000
  11    0.000000
  12    0.000853
  13   -0.029525
  14   -0.029525
  15   -0.007105
  16    0.000000
  17   -0.000002
  18    0.000002
  19    0.004694
  20    0.004694
  21   -0.006023
  22   -0.000000
  23    0.000001
  24   -0.000001
  25   -0.006278
  26    0.010541
  27    0.000001
  28   -0.000001
  29   -0.011586
  30    0.010808
  31    0.000000
  32   -0.000000
  33   -0.001711
  34   -0.001246
  35   -0.001246
  36    0.002014
  37   -0.000000
  38   -0.000000
  39    0.000000
  40    0.000917
  41   -0.001958
  42   -0.000450
  43    0.000450
  44    0.000189
  45   -0.000174
  46    0.000174
  47   -0.000119
  48    0.000917
  49   -0.001958
  50    0.000450
  51    0.000450
  52    0.000189
  53    0.000174
  54    0.000174
  55   -0.000119
  56    0.000917
  57   -0.001958
  58    0.000450
  59   -0.000450
  60    0.000189
  61    0.000174
  62   -0.000174
  63   -0.000119
  64    0.000917
  65   -0.001958
  66   -0.000450
  67   -0.000450
  68    0.000189
  69   -0.000174
  70   -0.000174
  71   -0.000119
 Sym= A
 Ene=    -1.2825
 Spin= Alpha
 Occup=   2.000000
   1   -0.023475
   2    0.005668
   3    0.001659
   4   -0.000069
   5    0.000069
   6    0.968357
   7   -0.000000
   8    0.000000
   9    0.003225
  10    0.000000
  11   -0.000000
  12   -0.000010
  13   -0.008594
  14   -0.008594
  15    0.017715
  16   -0.000000
  17   -0.000002
  18    0.000002
  19   -0.001958
  20   -0.001958
  21   -0.001828
  22    0.000000
  23    0.000000
  24   -0.000000
  25   -0.034434
  26    0.078903
  27    0.000004
  28   -0.000004
  29   -0.058361
  30    0.027674
  31    0.000000
  32   -0.000000
  33   -0.005315
  34    0.001075
  35    0.001075
  36    0.015316
  37   -0.000000
  38   -0.000001
  39    0.000001
  40   -0.002451
  41   -0.000491
  42    0.001863
  43   -0.001863
  44    0.000041
  45    0.000068
  46   -0.000068
  47    0.000770
  48   -0.002451
  49   -0.000491
  50   -0.001863
  51   -0.001863
  52    0.000041
  53   -0.000068
  54   -0.000068
  55    0.000770
  56   -0.002451
  57   -0.000491
  58   -0.001863
  59    0.001863
  60    0.000041
  61   -0.000068
  62    0.000068
  63    0.000770
  64   -0.002451
  65   -0.000491
  66    0.001863
  67    0.001863
  68    0.000041
  69    0.000068
  70    0.000068
  71    0.000770
 Sym= A
 Ene=    -1.2192
 Spin= Alpha
 Occup=   2.000000
   1   -0.000000
   2   -0.000000
   3   -0.000000
   4    0.684074
   5    0.724286
   6   -0.000003
   7    0.000824
   8    0.000873
   9   -0.000000
  10    0.000244
  11    0.000258
  12    0.000000
  13    0.000000
  14   -0.000000
  15    0.000000
  16    0.000000
  17    0.000593
  18    0.000628
  19    0.000000
  20   -0.000000
  21    0.000000
  22   -0.000000
  23   -0.001299
  24   -0.001375
  25   -0.000000
  26    0.000000
  27    0.007907
  28    0.008372
  29   -0.000000
  30    0.000000
  31    0.003531
  32    0.003739
  33   -0.000000
  34    0.000000
  35   -0.000000
  36    0.000000
  37    0.000000
  38   -0.002144
  39   -0.002270
  40   -0.000255
  41   -0.000133
  42    0.000552
  43    0.000236
  44   -0.000071
  45    0.000884
  46    0.000780
  47   -0.000042
  48   -0.008921
  49   -0.004664
  50   -0.005552
  51   -0.005530
  52   -0.002494
  53   -0.001846
  54   -0.001799
  55   -0.001472
  56    0.000255
  57    0.000133
  58    0.000552
  59    0.000236
  60    0.000071
  61    0.000884
  62    0.000780
  63    0.000042
  64    0.008921
  65    0.004664
  66   -0.005552
  67   -0.005529
  68    0.002494
  69   -0.001846
  70   -0.001798
  71    0.001472
 Sym= A
 Ene=    -1.2192
 Spin= Alpha
 Occup=   2.000000
   1   -0.000000
   2    0.000001
   3    0.000001
   4    0.724286
   5   -0.684074
   6    0.000101
   7    0.000873
   8   -0.000824
   9    0.000000
  10    0.000258
  11   -0.000244
  12    0.000000
  13   -0.000000
  14   -0.000000
  15   -0.000000
  16   -0.000000
  17    0.000628
  18   -0.000593
  19   -0.000000
  20   -0.000000
  21   -0.000001
  22   -0.000000
  23   -0.001375
  24    0.001298
  25   -0.000000
  26    0.000000
  27    0.008372
  28   -0.007907
  29    0.000001
  30    0.000000
  31    0.003739
  32   -0.003531
  33    0.000001
  34    0.000000
  35    0.000000
  36   -0.000001
  37   -0.000000
  38   -0.002270
  39    0.002144
  40    0.008921
  41    0.004664
  42   -0.005530
  43    0.005553
  44    0.002493
  45   -0.001799
  46    0.001846
  47    0.001471
  48   -0.000255
  49   -0.000133
  50    0.000236
  51   -0.000552
  52   -0.000071
  53    0.000780
  54   -0.000884
  55   -0.000042
  56   -0.008920
  57   -0.004664
  58   -0.005529
  59    0.005552
  60   -0.002495
  61   -0.001798
  62    0.001846
  63   -0.001472
  64    0.000255
  65    0.000133
  66    0.000236
  67   -0.000552
  68    0.000071
  69    0.000780
  70   -0.000884
  71    0.000042
 Sym= A
 Ene=    -0.6190
 Spin= Alpha
 Occup=   2.000000
   1   -0.054396
   2    0.082269
   3    0.022896
   4    0.000020
   5   -0.000020
   6   -0.285491
   7    0.000002
   8   -0.000002
   9   -0.021225
  10   -0.000001
  11    0.000001
  12    0.011908
  13   -0.069014
  14   -0.069014
  15    0.123704
  16   -0.000000
  17   -0.000016
  18    0.000016
  19   -0.010393
  20   -0.010393
  21   -0.035273
  22   -0.000000
  23    0.000002
  24   -0.000002
  25   -0.227524
  26    0.501842
  27    0.000004
  28   -0.000004
  29   -0.056681
  30    0.566603
  31    0.000003
  32   -0.000003
  33   -0.043680
  34   -0.008798
  35   -0.008798
  36    0.015494
  37    0.000000
  38   -0.000002
  39    0.000002
  40    0.005144
  41    0.002125
  42   -0.001220
  43    0.001220
  44   -0.000273
  45   -0.000229
  46    0.000229
  47   -0.000900
  48    0.005144
  49    0.002125
  50    0.001220
  51    0.001220
  52   -0.000273
  53    0.000229
  54    0.000229
  55   -0.000900
  56    0.005143
  57    0.002125
  58    0.001220
  59   -0.001220
  60   -0.000273
  61    0.000229
  62   -0.000229
  63   -0.000900
  64    0.005144
  65    0.002125
  66   -0.001220
  67   -0.001220
  68   -0.000273
  69   -0.000229
  70   -0.000229
  71   -0.000900
 Sym= A
 Ene=    -0.4455
 Spin= Alpha
 Occup=   2.000000
   1   -0.040325
   2    0.050389
   3    0.046405
   4   -0.000012
   5    0.000011
   6    0.041016
   7    0.000007
   8   -0.000008
   9   -0.030222
  10    0.000000
  11   -0.000000
  12    0.001809
  13    0.029438
  14    0.029438
  15   -0.025919
  16    0.000001
  17    0.000001
  18   -0.000001
  19    0.008917
  20    0.008917
  21   -0.023201
  22   -0.000002
  23    0.000000
  24    0.000000
  25    0.005580
  26   -0.014780
  27   -0.000000
  28    0.000000
  29   -0.000519
  30   -0.001414
  31   -0.000000
  32    0.000000
  33    0.003633
  34    0.000435
  35    0.000435
  36   -0.001761
  37    0.000000
  38    0.000000
  39   -0.000000
  40    0.291514
  41    0.196942
  42   -0.013830
  43    0.013830
  44    0.004952
  45   -0.004127
  46    0.004128
  47    0.001733
  48    0.291462
  49    0.196908
  50    0.013827
  51    0.013827
  52    0.004953
  53    0.004127
  54    0.004128
  55    0.001734
  56    0.291407
  57    0.196870
  58    0.013824
  59   -0.013825
  60    0.004955
  61    0.004126
  62   -0.004126
  63    0.001733
  64    0.291469
  65    0.196914
  66   -0.013827
  67   -0.013828
  68    0.004953
  69   -0.004129
  70   -0.004127
  71    0.001734
 Sym= A
 Ene=    -0.4342
 Spin= Alpha
 Occup=   2.000000
   1    0.000000
   2   -0.000001
   3   -0.000000
   4   -0.057300
   5   -0.057247
   6   -0.000000
   7    0.033596
   8    0.033568
   9   -0.000001
  10    0.002907
  11    0.002904
  12    0.000000
  13    0.000002
  14   -0.000003
  15    0.000000
  16    0.000003
  17   -0.021424
  18   -0.021404
  19    0.000003
  20   -0.000001
  21   -0.000001
  22   -0.000000
  23   -0.014225
  24   -0.014213
  25   -0.000000
  26   -0.000000
  27   -0.002094
  28   -0.002092
  29   -0.000000
  30    0.000001
  31   -0.000359
  32   -0.000359
  33   -0.000000
  34   -0.000000
  35   -0.000000
  36   -0.000000
  37    0.000000
  38    0.000099
  39    0.000099
  40    0.000180
  41    0.000123
  42    0.004301
  43    0.004312
  44    0.000002
  45   -0.002551
  46   -0.002548
  47    0.000001
  48   -0.420964
  49   -0.287156
  50   -0.013794
  51   -0.013799
  52   -0.004525
  53   -0.003042
  54   -0.003040
  55   -0.003401
  56   -0.000211
  57   -0.000147
  58    0.004299
  59    0.004313
  60   -0.000002
  61   -0.002552
  62   -0.002547
  63   -0.000002
  64    0.420985
  65    0.287170
  66   -0.013795
  67   -0.013799
  68    0.004525
  69   -0.003042
  70   -0.003040
  71    0.003401
 Sym= A
 Ene=    -0.4342
 Spin= Alpha
 Occup=   2.000000
   1    0.000004
   2   -0.000005
   3   -0.000006
   4   -0.057247
   5    0.057300
   6   -0.000012
   7    0.033568
   8   -0.033596
   9    0.000010
  10    0.002904
  11   -0.002907
  12   -0.000000
  13   -0.000000
  14   -0.000000
  15   -0.000002
  16   -0.000039
  17   -0.021404
  18    0.021424
  19   -0.000002
  20   -0.000002
  21    0.000000
  22   -0.000025
  23   -0.014213
  24    0.014225
  25   -0.000000
  26    0.000002
  27   -0.002092
  28    0.002094
  29   -0.000000
  30   -0.000002
  31   -0.000359
  32    0.000359
  33   -0.000000
  34    0.000000
  35    0.000000
  36    0.000000
  37    0.000000
  38    0.000099
  39   -0.000099
  40    0.421094
  41    0.287246
  42   -0.013803
  43    0.013799
  44    0.004526
  45   -0.003041
  46    0.003043
  47    0.003400
  48    0.000001
  49    0.000003
  50    0.004306
  51   -0.004307
  52   -0.000001
  53   -0.002548
  54    0.002551
  55    0.000003
  56   -0.420855
  57   -0.287080
  58   -0.013794
  59    0.013791
  60   -0.004524
  61   -0.003039
  62    0.003041
  63   -0.003402
  64   -0.000391
  65   -0.000266
  66    0.004320
  67   -0.004293
  68   -0.000005
  69   -0.002547
  70    0.002552
  71   -0.000001
 Sym= A
 Ene=    -0.4319
 Spin= Alpha
 Occup=   2.000000
   1    0.000000
   2    0.000001
   3    0.000001
   4    0.000026
   5   -0.000031
   6    0.000000
   7   -0.000019
   8    0.000019
   9    0.000002
  10   -0.000001
  11    0.000002
  12   -0.000000
  13    0.000000
  14    0.000000
  15   -0.000000
  16   -0.066616
  17    0.000014
  18   -0.000016
  19   -0.000002
  20   -0.000002
  21    0.000001
  22   -0.040368
  23    0.000011
  24   -0.000011
  25    0.000000
  26    0.000000
  27    0.000001
  28   -0.000001
  29    0.000000
  30   -0.000002
  31    0.000000
  32   -0.000000
  33    0.000000
  34    0.000000
  35    0.000000
  36    0.000000
  37    0.000358
  38   -0.000000
  39    0.000000
  40    0.299052
  41    0.205332
  42   -0.009975
  43    0.009976
  44    0.006081
  45   -0.000824
  46    0.000824
  47   -0.001755
  48   -0.299287
  49   -0.205489
  50   -0.009985
  51   -0.009981
  52   -0.006085
  53   -0.000822
  54   -0.000825
  55    0.001753
  56    0.299495
  57    0.205632
  58    0.009989
  59   -0.009989
  60    0.006088
  61    0.000825
  62   -0.000825
  63   -0.001751
  64   -0.299251
  65   -0.205463
  66    0.009980
  67    0.009984
  68   -0.006084
  69    0.000824
  70    0.000821
  71    0.001754
 Sym= A
 Ene=    -0.1023
 Spin= Alpha
 Occup=   2.000000
   1    0.100192
   2   -0.048810
   3    0.104870
   4   -0.000012
   5    0.000012
   6    0.156726
   7   -0.000005
   8    0.000005
   9    0.067660
  10   -0.000002
  11    0.000002
  12    0.036950
  13    0.194046
  14    0.194046
  15   -0.473956
  16    0.000000
  17    0.000056
  18   -0.000055
  19   -0.024241
  20   -0.024241
  21   -0.046422
  22    0.000000
  23    0.000003
  24   -0.000003
  25   -0.038605
  26    0.076140
  27   -0.000038
  28    0.000038
  29    0.556282
  30    0.165374
  31   -0.000023
  32    0.000023
  33    0.334551
  34    0.001463
  35    0.001463
  36   -0.037097
  37    0.000000
  38    0.000003
  39   -0.000003
  40   -0.008112
  41   -0.004665
  42   -0.010611
  43    0.010611
  44    0.033536
  45   -0.016216
  46    0.016216
  47    0.028893
  48   -0.008112
  49   -0.004666
  50    0.010607
  51    0.010612
  52    0.033536
  53    0.016213
  54    0.016217
  55    0.028893
  56   -0.008112
  57   -0.004666
  58    0.010607
  59   -0.010607
  60    0.033536
  61    0.016213
  62   -0.016213
  63    0.028894
  64   -0.008112
  65   -0.004666
  66   -0.010612
  67   -0.010607
  68    0.033536
  69   -0.016217
  70   -0.016213
  71    0.028893
 Sym= A
 Ene=    -0.0815
 Spin= Alpha
 Occup=   2.000000
   1    0.000000
   2    0.000000
   3    0.000000
   4   -0.044475
   5   -0.044330
   6   -0.000000
   7    0.033853
   8    0.033742
   9    0.000000
  10    0.021250
  11    0.021181
  12   -0.000000
  13   -0.000033
  14    0.000033
  15    0.000000
  16   -0.000000
  17    0.268147
  18    0.267274
  19   -0.000009
  20    0.000008
  21    0.000000
  22   -0.000000
  23    0.069571
  24    0.069345
  25    0.000000
  26    0.000000
  27    0.370606
  28    0.369398
  29   -0.000000
  30   -0.000000
  31    0.246439
  32    0.245636
  33   -0.000000
  34    0.000003
  35   -0.000003
  36    0.000000
  37   -0.000000
  38   -0.021058
  39   -0.020990
  40    0.000020
  41    0.000010
  42   -0.008504
  43   -0.008664
  44    0.000076
  45   -0.012839
  46   -0.012988
  47    0.000073
  48   -0.012267
  49   -0.005891
  50    0.048978
  51    0.048998
  52   -0.046383
  53    0.045543
  54    0.045578
  55   -0.044897
  56   -0.000020
  57   -0.000009
  58   -0.008502
  59   -0.008662
  60   -0.000076
  61   -0.012837
  62   -0.012986
  63   -0.000073
  64    0.012267
  65    0.005891
  66    0.048971
  67    0.049006
  68    0.046383
  69    0.045536
  70    0.045586
  71    0.044897
 Sym= A
 Ene=    -0.0815
 Spin= Alpha
 Occup=   2.000000
   1   -0.000003
   2    0.000001
   3   -0.000001
   4    0.044330
   5   -0.044475
   6    0.000009
   7   -0.033742
   8    0.033852
   9   -0.000007
  10   -0.021181
  11    0.021250
  12   -0.000002
  13    0.000035
  14    0.000035
  15   -0.000067
  16   -0.000041
  17   -0.267274
  18    0.268147
  19    0.000009
  20    0.000009
  21   -0.000016
  22   -0.000009
  23   -0.069345
  24    0.069571
  25   -0.000000
  26    0.000000
  27   -0.369399
  28    0.370606
  29   -0.000050
  30    0.000001
  31   -0.245637
  32    0.246439
  33   -0.000033
  34   -0.000003
  35   -0.000003
  36    0.000005
  37    0.000003
  38    0.020990
  39   -0.021058
  40   -0.012269
  41   -0.005893
  42   -0.049004
  43    0.048976
  44   -0.046391
  45   -0.045583
  46    0.045541
  47   -0.044903
  48   -0.000021
  49   -0.000010
  50    0.008664
  51   -0.008502
  52   -0.000074
  53    0.012987
  54   -0.012837
  55   -0.000071
  56    0.012265
  57    0.005889
  58   -0.049000
  59    0.048972
  60    0.046376
  61   -0.045580
  62    0.045538
  63    0.044891
  64    0.000019
  65    0.000009
  66    0.008662
  67   -0.008504
  68    0.000077
  69    0.012986
  70   -0.012839
  71    0.000075
 Sym= A
 Ene=    -0.0438
 Spin= Alpha
 Occup=   2.000000
   1    0.205931
   2   -0.098456
   3    0.032933
   4    0.000009
   5   -0.000008
   6   -0.028832
   7   -0.000009
   8    0.000010
   9    0.059032
  10    0.000003
  11   -0.000003
  12   -0.023068
  13   -0.123735
  14   -0.123735
  15    0.012402
  16   -0.000002
  17   -0.000012
  18    0.000012
  19   -0.066309
  20   -0.066309
  21   -0.042631
  22    0.000000
  23   -0.000003
  24    0.000002
  25   -0.009119
  26    0.025197
  27   -0.000017
  28    0.000016
  29    0.089973
  30    0.024195
  31   -0.000012
  32    0.000012
  33    0.063804
  34   -0.000117
  35   -0.000117
  36   -0.001502
  37   -0.000000
  38    0.000001
  39   -0.000001
  40    0.049795
  41    0.059927
  42    0.152366
  43   -0.152366
  44   -0.051397
  45    0.165021
  46   -0.165021
  47   -0.057342
  48    0.049794
  49    0.059923
  50   -0.152354
  51   -0.152357
  52   -0.051414
  53   -0.165008
  54   -0.165012
  55   -0.057361
  56    0.049791
  57    0.059919
  58   -0.152343
  59    0.152343
  60   -0.051429
  61   -0.164997
  62    0.164996
  63   -0.057378
  64    0.049794
  65    0.059922
  66    0.152359
  67    0.152355
  68   -0.051415
  69    0.165014
  70    0.165010
  71   -0.057362
 Sym= A
 Ene=    -0.0286
 Spin= Alpha
 Occup=   2.000000
   1    0.000001
   2   -0.000001
   3   -0.000000
   4    0.000010
   5   -0.000011
   6   -0.000000
   7   -0.000008
   8    0.000009
   9   -0.000000
  10    0.000003
  11   -0.000003
  12    0.000000
  13   -0.000000
  14   -0.000001
  15    0.000000
  16    0.359972
  17   -0.000022
  18    0.000022
  19    0.000001
  20    0.000000
  21   -0.000000
  22    0.090405
  23   -0.000006
  24    0.000006
  25   -0.000000
  26    0.000000
  27   -0.000010
  28    0.000011
  29    0.000000
  30    0.000001
  31   -0.000008
  32    0.000008
  33    0.000000
  34   -0.000000
  35   -0.000000
  36   -0.000000
  37    0.003536
  38    0.000000
  39   -0.000000
  40    0.030169
  41    0.049208
  42    0.142798
  43   -0.142798
  44   -0.096968
  45    0.152961
  46   -0.152960
  47   -0.100462
  48   -0.030165
  49   -0.049203
  50    0.142762
  51    0.142784
  52    0.096977
  53    0.152922
  54    0.152944
  55    0.100472
  56    0.030163
  57    0.049198
  58   -0.142754
  59    0.142754
  60   -0.096988
  61   -0.152914
  62    0.152914
  63   -0.100484
  64   -0.030165
  65   -0.049203
  66   -0.142786
  67   -0.142764
  68    0.096978
  69   -0.152946
  70   -0.152924
  71    0.100473
 Sym= A
 Ene=    -0.0197
 Spin= Alpha
 Occup=   2.000000
   1   -0.000000
   2   -0.000000
   3   -0.000000
   4   -0.000015
   5   -0.000014
   6    0.000000
   7    0.000017
   8    0.000014
   9   -0.000000
  10   -0.000003
  11   -0.000003
  12    0.000000
  13    0.271687
  14   -0.271687
  15    0.000000
  16   -0.000001
  17    0.000015
  18    0.000016
  19    0.104392
  20   -0.104392
  21    0.000000
  22    0.000001
  23    0.000005
  24    0.000006
  25   -0.000000
  26   -0.000000
  27    0.000016
  28    0.000014
  29    0.000000
  30    0.000000
  31    0.000012
  32    0.000011
  33    0.000000
  34    0.002206
  35   -0.002206
  36   -0.000000
  37   -0.000000
  38   -0.000001
  39   -0.000000
  40   -0.000000
  41   -0.000001
  42    0.151961
  43    0.151964
  44    0.000000
  45    0.165553
  46    0.165557
  47    0.000001
  48    0.000006
  49    0.000009
  50   -0.151967
  51    0.151920
  52   -0.000025
  53   -0.165561
  54    0.165511
  55   -0.000027
  56    0.000000
  57    0.000001
  58   -0.151927
  59   -0.151924
  60   -0.000000
  61   -0.165519
  62   -0.165517
  63    0.000000
  64   -0.000006
  65   -0.000010
  66    0.151923
  67   -0.151969
  68    0.000025
  69    0.165514
  70   -0.165562
  71    0.000027
 Sym= A
 Ene=    -0.0129
 Spin= Alpha
 Occup=   2.000000
   1   -0.000000
   2    0.000001
   3    0.000000
   4    0.116367
   5    0.114934
   6    0.000000
   7   -0.123138
   8   -0.121623
   9    0.000001
  10    0.038033
  11    0.037565
  12   -0.000000
  13    0.000027
  14   -0.000027
  15   -0.000000
  16    0.000002
  17    0.061444
  18    0.060688
  19    0.000009
  20   -0.000011
  21    0.000000
  22    0.000000
  23    0.025038
  24    0.024731
  25    0.000000
  26    0.000000
  27   -0.112250
  28   -0.110868
  29   -0.000000
  30   -0.000001
  31   -0.085638
  32   -0.084583
  33   -0.000000
  34   -0.000000
  35    0.000000
  36    0.000000
  37    0.000000
  38    0.004782
  39    0.004723
  40    0.000239
  41    0.000438
  42   -0.097527
  43   -0.100118
  44   -0.000267
  45   -0.100050
  46   -0.102827
  47   -0.000272
  48   -0.038522
  49   -0.070653
  50    0.208519
  51    0.209790
  52    0.043045
  53    0.223479
  54    0.224787
  55    0.043935
  56   -0.000239
  57   -0.000437
  58   -0.097562
  59   -0.100153
  60    0.000266
  61   -0.100088
  62   -0.102866
  63    0.000272
  64    0.038521
  65    0.070653
  66    0.208564
  67    0.209741
  68   -0.043044
  69    0.223527
  70    0.224733
  71   -0.043933
 Sym= A
 Ene=    -0.0129
 Spin= Alpha
 Occup=   2.000000
   1   -0.000009
   2    0.000001
   3   -0.000002
   4    0.114934
   5   -0.116366
   6    0.000014
   7   -0.121623
   8    0.123139
   9   -0.000020
  10    0.037565
  11   -0.038033
  12    0.000007
  13   -0.000000
  14   -0.000004
  15    0.000015
  16   -0.000015
  17    0.060688
  18   -0.061444
  19    0.000004
  20    0.000002
  21    0.000007
  22   -0.000004
  23    0.024731
  24   -0.025039
  25    0.000000
  26   -0.000001
  27   -0.110867
  28    0.112250
  29   -0.000021
  30    0.000001
  31   -0.084583
  32    0.085637
  33   -0.000016
  34   -0.000001
  35   -0.000001
  36    0.000001
  37    0.000000
  38    0.004723
  39   -0.004782
  40    0.038519
  41    0.070648
  42    0.209754
  43   -0.208528
  44   -0.043003
  45    0.224748
  46   -0.223489
  47   -0.043890
  48    0.000239
  49    0.000438
  50   -0.100142
  51    0.097542
  52   -0.000284
  53   -0.102853
  54    0.100066
  55   -0.000291
  56   -0.038525
  57   -0.070660
  58    0.209776
  59   -0.208554
  60    0.043085
  61    0.224771
  62   -0.223516
  63    0.043977
  64   -0.000238
  65   -0.000437
  66   -0.100132
  67    0.097548
  68    0.000249
  69   -0.102842
  70    0.100074
  71    0.000254
 Sym= A
 Ene=     0.0034
 Spin= Alpha
 Occup=   2.000000
   1   -0.035482
   2    0.014400
   3   -0.051897
   4    0.000005
   5   -0.000006
   6   -0.110434
   7   -0.000002
   8    0.000003
   9    0.053764
  10   -0.000007
  11    0.000007
  12    0.083086
  13    0.018900
  14    0.018900
  15   -0.009638
  16   -0.000000
  17   -0.000000
  18   -0.000000
  19    0.064362
  20    0.064362
  21   -0.049820
  22    0.000000
  23    0.000011
  24   -0.000011
  25    0.006545
  26   -0.019884
  27   -0.000000
  28   -0.000001
  29   -0.125814
  30   -0.003660
  31    0.000000
  32   -0.000001
  33   -0.112215
  34   -0.000797
  35   -0.000797
  36    0.005364
  37   -0.000000
  38   -0.000000
  39    0.000000
  40    0.002713
  41   -0.000678
  42    0.043692
  43   -0.043692
  44    0.228212
  45    0.058634
  46   -0.058634
  47    0.247046
  48    0.002714
  49   -0.000678
  50   -0.043725
  51   -0.043694
  52    0.228181
  53   -0.058671
  54   -0.058638
  55    0.247009
  56    0.002714
  57   -0.000678
  58   -0.043725
  59    0.043725
  60    0.228151
  61   -0.058672
  62    0.058672
  63    0.246974
  64    0.002714
  65   -0.000678
  66    0.043694
  67    0.043725
  68    0.228185
  69    0.058638
  70    0.058671
  71    0.247013
 Sym= A
 Ene=     0.0199
 Spin= Alpha
 Occup=   2.000000
   1    0.000000
   2   -0.000000
   3    0.000000
   4   -0.017858
   5   -0.017878
   6    0.000001
   7    0.004055
   8    0.004059
   9   -0.000000
  10   -0.014390
  11   -0.014407
  12   -0.000000
  13    0.000003
  14   -0.000003
  15    0.000000
  16   -0.000001
  17   -0.010364
  18   -0.010376
  19   -0.000004
  20    0.000003
  21    0.000000
  22    0.000000
  23    0.034074
  24    0.034112
  25   -0.000000
  26    0.000000
  27   -0.099852
  28   -0.099965
  29    0.000001
  30    0.000000
  31   -0.082185
  32   -0.082278
  33    0.000001
  34   -0.000001
  35    0.000001
  36   -0.000000
  37    0.000000
  38    0.004894
  39    0.004900
  40   -0.000001
  41   -0.000007
  42   -0.043900
  43   -0.043899
  44   -0.000199
  45   -0.048594
  46   -0.048600
  47   -0.000230
  48   -0.001659
  49   -0.012231
  50   -0.000768
  51   -0.000861
  52   -0.346077
  53   -0.008137
  54   -0.008243
  55   -0.399511
  56    0.000001
  57    0.000007
  58   -0.043898
  59   -0.043901
  60    0.000192
  61   -0.048591
  62   -0.048603
  63    0.000222
  64    0.001659
  65    0.012230
  66   -0.000810
  67   -0.000816
  68    0.346079
  69   -0.008186
  70   -0.008191
  71    0.399513
 Sym= A
 Ene=     0.0199
 Spin= Alpha
 Occup=   2.000000
   1    0.000003
   2   -0.000000
   3    0.000003
   4   -0.017878
   5    0.017858
   6    0.000003
   7    0.004060
   8   -0.004055
   9   -0.000002
  10   -0.014408
  11    0.014391
  12   -0.000010
  13   -0.000001
  14   -0.000001
  15   -0.000001
  16    0.000004
  17   -0.010376
  18    0.010364
  19   -0.000009
  20   -0.000009
  21    0.000011
  22    0.000003
  23    0.034112
  24   -0.034074
  25   -0.000000
  26    0.000001
  27   -0.099965
  28    0.099852
  29   -0.000008
  30    0.000000
  31   -0.082278
  32    0.082185
  33   -0.000006
  34   -0.000001
  35   -0.000001
  36    0.000001
  37    0.000001
  38    0.004900
  39   -0.004894
  40    0.001659
  41    0.012231
  42   -0.000855
  43    0.000806
  44    0.346081
  45   -0.008236
  46    0.008181
  47    0.399515
  48   -0.000001
  49   -0.000006
  50   -0.043889
  51    0.043912
  52   -0.000238
  53   -0.048588
  54    0.048608
  55   -0.000273
  56   -0.001659
  57   -0.012231
  58   -0.000825
  59    0.000774
  60   -0.346074
  61   -0.008200
  62    0.008145
  63   -0.399509
  64    0.000001
  65    0.000008
  66   -0.043913
  67    0.043888
  68    0.000153
  69   -0.048618
  70    0.048579
  71    0.000179
 Sym= A
 Ene=     0.0286
 Spin= Alpha
 Occup=   2.000000
   1   -0.000000
   2   -0.000000
   3    0.000000
   4    0.000003
   5   -0.000004
   6   -0.000000
   7   -0.000000
   8    0.000001
   9   -0.000001
  10    0.000007
  11   -0.000009
  12    0.000000
  13    0.000000
  14   -0.000000
  15   -0.000000
  16    0.023914
  17    0.000001
  18   -0.000001
  19    0.000001
  20    0.000001
  21   -0.000001
  22   -0.038498
  23   -0.000000
  24    0.000001
  25   -0.000000
  26   -0.000000
  27    0.000002
  28   -0.000003
  29   -0.000000
  30    0.000001
  31    0.000002
  32   -0.000003
  33   -0.000000
  34   -0.000000
  35   -0.000000
  36   -0.000000
  37   -0.001107
  38   -0.000000
  39    0.000000
  40   -0.004910
  41   -0.014415
  42    0.079591
  43   -0.079596
  44    0.233385
  45    0.100632