[Molden Format]
[Title]
nh3_ts_ir
[Atoms] Angs
N      1  7     0.000000     0.000000     0.000000
H      2  1    -0.488296     0.845754     0.000000
H      3  1    -0.488296    -0.845754     0.000000
H      4  1     0.976592     0.000000     0.000000
[SCFCONV]
scf-first    1 THROUGH   25
    -248.404465
    -248.403430
    -248.403435
    -248.404553
    -248.404237
    -248.403955
    -248.404475
    -248.404237
    -248.403956
    -248.404475
    -248.403817
    -248.404374
    -248.404475
    -248.403441
    -248.403435
    -248.404553
    -248.404232
    -248.403956
    -248.404475
    -248.404232
    -248.403955
    -248.404475
    -248.403815
    -248.404374
    -248.404475
