[Molden Format]
[Title]
water_cis_saps
[Atoms] Angs
O      1  8     0.000000    -0.066679     0.000000
H      2  1     0.790649     0.529118     0.000000
H      3  1    -0.790649     0.529118     0.000000
[GTO]
  1 0
s     3 1.00
   1.307093e+02    1.543290e-01
   2.380887e+01    5.353281e-01
   6.443608e+00    4.446345e-01
s     3 1.00
   5.033151e+00   -9.996723e-02
   1.169596e+00    3.995128e-01
   3.803890e-01    7.001155e-01
p     3 1.00
   5.033151e+00    1.559163e-01
   1.169596e+00    6.076837e-01
   3.803890e-01    3.919574e-01

  2 0
s     3 1.00
   3.425251e+00    1.543290e-01
   6.239137e-01    5.353281e-01
   1.688554e-01    4.446345e-01

  3 0
s     3 1.00
   3.425251e+00    1.543290e-01
   6.239137e-01    5.353281e-01
   1.688554e-01    4.446345e-01

[MO]
 Sym= A
 Ene=   -20.2438
 Spin= Alpha
 Occup=   2.000000
   1    0.994203
   2    0.025916
   3   -0.000000
   4    0.003993
   5   -0.000000
   6   -0.005627
   7   -0.005627
 Sym= A
 Ene=    -1.2506
 Spin= Alpha
 Occup=   2.000000
   1   -0.234218
   2    0.845882
   3   -0.000000
   4    0.117048
   5   -0.000000
   6    0.156449
   7    0.156449
 Sym= A
 Ene=    -0.6032
 Spin= Alpha
 Occup=   2.000000
   1    0.000000
   2    0.000000
   3    0.603305
   4    0.000000
   5    0.000000
   6    0.446377
   7   -0.446377
 Sym= A
 Ene=    -0.4455
 Spin= Alpha
 Occup=   2.000000
   1    0.100458
   2   -0.521395
   3   -0.000000
   4    0.774267
   5   -0.000000
   6    0.289064
   7    0.289064
 Sym= A
 Ene=    -0.3882
 Spin= Alpha
 Occup=   2.000000
   1   -0.000000
   2   -0.000000
   3   -0.000000
   4   -0.000000
   5    1.000000
   6   -0.000000
   7   -0.000000
 Sym= A
 Ene=     0.5707
 Spin= Alpha
 Occup=   0.000000
   1   -0.128351
   2    0.832526
   3    0.000000
   4    0.732626
   5    0.000000
   6   -0.775801
   7   -0.775801
 Sym= A
 Ene=     0.7086
 Spin= Alpha
 Occup=   0.000000
   1    0.000000
   2    0.000000
   3    0.976485
   4    0.000000
   5    0.000000
   6   -0.808916
   7    0.808916
