[Molden Format]
[Atoms] Angs
 O     1  8     0.000000    -0.066679     0.000000
 H     2  1     0.790649     0.529118     0.000000
 H     3  1    -0.790649     0.529118     0.000000
[GTO]
  1 0
 s    6 1.00
  0.5484671660D+04  0.1831074430D-02
  0.8252349460D+03  0.1395017220D-01
  0.1880469580D+03  0.6844507810D-01
  0.5296450000D+02  0.2327143360D+00
  0.1689757040D+02  0.4701928980D+00
  0.5799635300D+01  0.3585208530D+00
 sp   3 1.00
  0.1553961620D+02 -0.1107775495D+00  0.7087426823D-01
  0.3599933600D+01 -0.1480262627D+00  0.3397528391D+00
  0.1013761800D+01  0.1130767015D+01  0.7271585773D+00
 sp   1 1.00
  0.2700058000D+00  0.1000000000D+01  0.1000000000D+01
 d    1 1.00
  0.8000000000D+00  0.1000000000D+01
  
  2 0
 s    3 1.00
  0.1873113700D+02  0.3349460434D-01
  0.2825394400D+01  0.2347269535D+00
  0.6401217000D+00  0.8137573261D+00
 s    1 1.00
  0.1612778000D+00  0.1000000000D+01
 p    1 1.00
  0.1100000000D+01  0.1000000000D+01
  
  3 0
 s    3 1.00
  0.1873113700D+02  0.3349460434D-01
  0.2825394400D+01  0.2347269535D+00
  0.6401217000D+00  0.8137573261D+00
 s    1 1.00
  0.1612778000D+00  0.1000000000D+01
 p    1 1.00
  0.1100000000D+01  0.1000000000D+01
 

[MO]
 Ene=   -20.5655
 Spin= Alpha
 Occup=   2.000000
   1   0.994704
   2   0.021002
   3  -0.000000
   4   0.001425
   5  -0.000000
   6   0.004102
   7  -0.000000
   8  -0.000295
   9  -0.000000
  10  -0.003852
  11  -0.003845
  12  -0.003852
  13  -0.000000
  14  -0.000000
  15  -0.000000
  16   0.000152
  17  -0.000291
  18   0.000250
  19   0.000181
  20  -0.000000
  21   0.000152
  22  -0.000291
  23  -0.000250
  24   0.000181
  25  -0.000000
 Ene=    -1.3229
 Spin= Alpha
 Occup=   2.000000
   1  -0.211347
   2   0.477201
   3  -0.000000
   4   0.076607
   5  -0.000000
   6   0.435551
   7  -0.000000
   8   0.033630
   9  -0.000000
  10   0.007598
  11   0.008594
  12   0.001263
  13  -0.000000
  14  -0.000000
  15  -0.000000
  16   0.135166
  17   0.014605
  18  -0.020230
  19  -0.012751
  20  -0.000000
  21   0.135166
  22   0.014605
  23   0.020230
  24  -0.012751
  25  -0.000000
 Ene=    -0.6887
 Spin= Alpha
 Occup=   2.000000
   1  -0.000000
   2  -0.000000
   3   0.496612
   4  -0.000000
   5  -0.000000
   6  -0.000000
   7   0.282482
   8  -0.000000
   9  -0.000000
  10  -0.000000
  11  -0.000000
  12  -0.000000
  13   0.033309
  14  -0.000000
  15  -0.000000
  16   0.236617
  17   0.138337
  18  -0.011909
  19  -0.018106
  20  -0.000000
  21  -0.236617
  22  -0.138337
  23  -0.011909
  24   0.018106
  25  -0.000000
 Ene=    -0.5599
 Spin= Alpha
 Occup=   2.000000
   1   0.070899
   2  -0.158078
   3   0.000000
   4   0.552199
   5   0.000000
   6  -0.327468
   7   0.000000
   8   0.393794
   9   0.000000
  10   0.000743
  11   0.036562
  12  -0.009240
  13   0.000000
  14   0.000000
  15   0.000000
  16   0.144885
  17   0.100261
  18  -0.014821
  19   0.005329
  20   0.000000
  21   0.144885
  22   0.100261
  23   0.014821
  24   0.005329
  25   0.000000
 Ene=    -0.4943
 Spin= Alpha
 Occup=   2.000000
   1  -0.000000
   2  -0.000000
   3  -0.000000
   4  -0.000000
   5   0.639574
   6  -0.000000
   7  -0.000000
   8  -0.000000
   9   0.500950
  10  -0.000000
  11  -0.000000
  12  -0.000000
  13  -0.000000
  14  -0.000000
  15   0.026598
  16  -0.000000
  17  -0.000000
  18  -0.000000
  19  -0.000000
  20   0.019545
  21  -0.000000
  22  -0.000000
  23  -0.000000
  24  -0.000000
  25   0.019545
 Ene=     0.2049
 Spin= Alpha
 Occup=   0.000000
   1  -0.099864
   2   0.061919
   3  -0.000000
   4   0.226534
   5  -0.000000
   6   1.352494
   7  -0.000000
   8   0.509691
   9  -0.000000
  10  -0.052111
  11  -0.040424
  12  -0.068448
  13  -0.000000
  14  -0.000000
  15  -0.000000
  16  -0.063173
  17  -1.016293
  18   0.002497
  19   0.001941
  20  -0.000000
  21  -0.063173
  22  -1.016293
  23  -0.002497
  24   0.001941
  25  -0.000000
 Ene=     0.2961
 Spin= Alpha
 Occup=   0.000000
   1   0.000000
   2   0.000000
   3   0.338418
   4   0.000000
   5   0.000000
   6   0.000000
   7   0.841257
   8   0.000000
   9   0.000000
  10   0.000000
  11   0.000000
  12   0.000000
  13   0.032696
  14   0.000000
  15   0.000000
  16  -0.058634
  17  -1.341369
  18   0.012964
  19   0.005859
  20   0.000000
  21   0.058634
  22   1.341369
  23   0.012964
  24  -0.005859
  25   0.000000
 Ene=     0.9956
 Spin= Alpha
 Occup=   0.000000
   1  -0.000000
   2  -0.000000
   3  -0.185179
   4  -0.000000
   5  -0.000000
   6  -0.000000
   7  -0.249815
   8  -0.000000
   9  -0.000000
  10  -0.000000
  11  -0.000000
  12  -0.000000
  13   0.272182
  14  -0.000000
  15  -0.000000
  16   0.776958
  17  -0.691246
  18   0.051924
  19   0.103933
  20  -0.000000
  21  -0.776958
  22   0.691246
  23   0.051924
  24  -0.103933
  25  -0.000000
 Ene=     1.0544
 Spin= Alpha
 Occup=   0.000000
   1   0.043318
   2  -0.268332
   3  -0.000000
   4  -0.449812
   5  -0.000000
   6   0.460252
   7  -0.000000
   8   0.251380
   9  -0.000000
  10   0.241849
  11   0.015432
  12  -0.188440
  13  -0.000000
  14  -0.000000
  15  -0.000000
  16   0.696193
  17  -0.622951
  18   0.174124
  19   0.055321
  20  -0.000000
  21   0.696193
  22  -0.622951
  23  -0.174124
  24   0.055321
  25  -0.000000
 Ene=     1.1316
 Spin= Alpha
 Occup=   0.000000
   1  -0.016301
   2  -0.879172
   3  -0.000000
   4   0.663014
   5  -0.000000
   6   1.629835
   7  -0.000000
   8  -0.815142
   9  -0.000000
  10  -0.297469
  11  -0.344705
  12  -0.329188
  13  -0.000000
  14  -0.000000
  15  -0.000000
  16   0.274635
  17  -0.277874
  18  -0.038865
  19  -0.051435
  20  -0.000000
  21   0.274635
  22  -0.277874
  23   0.038865
  24  -0.051435
  25  -0.000000
 Ene=     1.1696
 Spin= Alpha
 Occup=   0.000000
   1   0.000000
   2   0.000000
   3   0.000000
   4   0.000000
   5  -0.962854
   6   0.000000
   7   0.000000
   8   0.000000
   9   1.035539
  10   0.000000
  11   0.000000
  12   0.000000
  13   0.000000
  14   0.000000
  15   0.014566
  16   0.000000
  17   0.000000
  18   0.000000
  19   0.000000
  20   0.000746
  21   0.000000
  22   0.000000
  23   0.000000
  24   0.000000
  25   0.000746
 Ene=     1.2954
 Spin= Alpha
 Occup=   0.000000
   1   0.000000
   2   0.000000
   3  -0.887852
   4   0.000000
   5   0.000000
   6   0.000000
   7   1.746340
   8   0.000000
   9   0.000000
  10   0.000000
  11   0.000000
  12   0.000000
  13   0.106732
  14   0.000000
  15   0.000000
  16  -0.139312
  17  -0.883415
  18   0.176081
  19   0.107127
  20   0.000000
  21   0.139312
  22   0.883415
  23   0.176081
  24  -0.107127
  25   0.000000
 Ene=     1.4034
 Spin= Alpha
 Occup=   0.000000
   1  -0.080198
   2  -1.358997
   3   0.000000
   4  -0.452000
   5   0.000000
   6   3.393827
   7   0.000000
   8   1.058012
   9   0.000000
  10  -0.599111
  11  -0.336569
  12  -0.298196
  13   0.000000
  14   0.000000
  15   0.000000
  16  -0.329371
  17  -0.728280
  18  -0.006193
  19   0.120546
  20   0.000000
  21  -0.329371
  22  -0.728280
  23   0.006193
  24   0.120546
  25   0.000000
 Ene=     1.7972
 Spin= Alpha
 Occup=   0.000000
   1   0.000000
   2   0.000000
   3   0.000000
   4   0.000000
   5   0.000000
   6   0.000000
   7   0.000000
   8   0.000000
   9   0.000000
  10   0.000000
  11   0.000000
  12   0.000000
  13   0.000000
  14   0.672380
  15   0.000000
  16   0.000000
  17   0.000000
  18   0.000000
  19   0.000000
  20   0.361629
  21   0.000000
  22   0.000000
  23   0.000000
  24   0.000000
  25  -0.361629
 Ene=     1.8287
 Spin= Alpha
 Occup=   0.000000
   1  -0.027264
   2  -0.294341
   3  -0.000000
   4  -0.074769
   5  -0.000000
   6   0.814010
   7  -0.000000
   8   0.489835
   9  -0.000000
  10   0.253746
  11  -0.796481
  12   0.263424
  13  -0.000000
  14  -0.000000
  15  -0.000000
  16  -0.229050
  17  -0.130035
  18   0.179053
  19  -0.259142
  20  -0.000000
  21  -0.229050
  22  -0.130035
  23  -0.179053
  24  -0.259142
  25  -0.000000
 Ene=     1.9291
 Spin= Alpha
 Occup=   0.000000
   1  -0.000000
   2  -0.000000
   3  -0.000000
   4  -0.000000
   5  -0.008268
   6  -0.000000
   7  -0.000000
   8  -0.000000
   9  -0.202069
  10  -0.000000
  11  -0.000000
  12  -0.000000
  13  -0.000000
  14  -0.000000
  15   0.784491
  16  -0.000000
  17  -0.000000
  18  -0.000000
  19  -0.000000
  20   0.309220
  21  -0.000000
  22  -0.000000
  23  -0.000000
  24  -0.000000
  25   0.309220
 Ene=     2.5245
 Spin= Alpha
 Occup=   0.000000
   1  -0.044720
   2  -0.528673
   3   0.000000
   4  -0.227112
   5   0.000000
   6   1.248596
   7   0.000000
   8   0.591548
   9   0.000000
  10   0.486280
  11   0.039657
  12  -1.049779
  13   0.000000
  14   0.000000
  15   0.000000
  16  -0.582692
  17  -0.064865
  18  -0.153503
  19  -0.185923
  20   0.000000
  21  -0.582692
  22  -0.064865
  23   0.153503
  24  -0.185923
  25   0.000000
 Ene=     2.5294
 Spin= Alpha
 Occup=   0.000000
   1   0.000000
   2   0.000000
   3  -0.099685
   4   0.000000
   5   0.000000
   6   0.000000
   7   0.548253
   8   0.000000
   9   0.000000
  10   0.000000
  11   0.000000
  12   0.000000
  13  -0.028465
  14   0.000000
  15   0.000000
  16  -0.190962
  17  -0.075819
  18  -0.497496
  19   0.554483
  20   0.000000
  21   0.190962
  22   0.075819
  23  -0.497496
  24  -0.554483
  25   0.000000
 Ene=     2.7415
 Spin= Alpha
 Occup=   0.000000
   1   0.000000
   2   0.000000
   3  -0.361646
   4   0.000000
   5   0.000000
   6   0.000000
   7   0.393369
   8   0.000000
   9   0.000000
  10   0.000000
  11   0.000000
  12   0.000000
  13   0.775299
  14   0.000000
  15   0.000000
  16  -0.487992
  17   0.204433
  18  -0.265794
  19  -0.317254
  20   0.000000
  21   0.487992
  22  -0.204433
  23  -0.265794
  24   0.317254
  25   0.000000
 Ene=     2.9402
 Spin= Alpha
 Occup=   0.000000
   1  -0.000000
   2  -0.000000
   3  -0.000000
   4  -0.000000
   5   0.001618
   6  -0.000000
   7  -0.000000
   8  -0.000000
   9  -0.399445
  10  -0.000000
  11  -0.000000
  12  -0.000000
  13  -0.000000
  14  -0.000000
  15  -0.716669
  16  -0.000000
  17  -0.000000
  18  -0.000000
  19  -0.000000
  20   0.745170
  21  -0.000000
  22  -0.000000
  23  -0.000000
  24  -0.000000
  25   0.745170
 Ene=     2.9500
 Spin= Alpha
 Occup=   0.000000
   1  -0.000000
   2  -0.000000
   3  -0.000000
   4  -0.000000
   5  -0.000000
   6  -0.000000
   7  -0.000000
   8  -0.000000
   9  -0.000000
  10  -0.000000
  11  -0.000000
  12  -0.000000
  13  -0.000000
  14   0.873490
  15  -0.000000
  16  -0.000000
  17  -0.000000
  18  -0.000000
  19  -0.000000
  20  -0.693737
  21  -0.000000
  22  -0.000000
  23  -0.000000
  24  -0.000000
  25   0.693737
 Ene=     3.3141
 Spin= Alpha
 Occup=   0.000000
   1   0.011302
   2  -0.140195
   3   0.000000
   4  -0.023398
   5   0.000000
   6   0.189577
   7   0.000000
   8   0.449680
   9   0.000000
  10  -0.723947
  11   0.899917
  12  -0.044389
  13   0.000000
  14   0.000000
  15   0.000000
  16  -0.087468
  17  -0.067837
  18   0.473777
  19  -0.631189
  20   0.000000
  21  -0.087468
  22  -0.067837
  23  -0.473777
  24  -0.631189
  25   0.000000
 Ene=     3.6415
 Spin= Alpha
 Occup=   0.000000
   1  -0.229024
   2   0.157098
   3   0.000000
   4   0.418600
   5   0.000000
   6   2.604579
   7   0.000000
   8   0.786220
   9   0.000000
  10   0.135542
  11  -0.319869
  12  -1.131163
  13   0.000000
  14   0.000000
  15   0.000000
  16  -0.759477
  17  -0.523868
  18   0.754491
  19   0.493702
  20   0.000000
  21  -0.759477
  22  -0.523868
  23  -0.754491
  24   0.493702
  25   0.000000
 Ene=     3.8760
 Spin= Alpha
 Occup=   0.000000
   1  -0.000000
   2  -0.000000
   3   0.641300
   4  -0.000000
   5  -0.000000
   6  -0.000000
   7   1.294811
   8  -0.000000
   9  -0.000000
  10  -0.000000
  11  -0.000000
  12  -0.000000
  13   1.449773
  14  -0.000000
  15  -0.000000
  16  -1.117747
  17  -0.489859
  18   0.805135
  19   0.653004
  20  -0.000000
  21   1.117747
  22   0.489859
  23   0.805135
  24  -0.653004
  25  -0.000000
 Ene=     4.0948
 Spin= Alpha
 Occup=   0.000000
   1  -0.406100
   2   0.282673
   3  -0.000000
   4  -0.392426
   5  -0.000000
   6   2.622570
   7  -0.000000
   8  -0.072865
   9  -0.000000
  10  -1.922024
  11  -1.537358
  12  -1.174114
  13  -0.000000
  14  -0.000000
  15  -0.000000
  16   0.575994
  17  -0.286667
  18  -0.437674
  19  -0.386402
  20  -0.000000
  21   0.575994
  22  -0.286667
  23   0.437674
  24  -0.386402
  25  -0.000000
[SCFCONV]
scf-first    1 THROUGH   11
    -75.766198
    -76.006293
    -76.017998
    -76.019128
    -76.019155
    -76.019161
    -76.019161
    -76.019161
    -76.019161
    -76.019161
    -76.019161
