
                                 *****************
                                 * O   R   C   A *
                                 *****************

           --- An Ab Initio, DFT and Semiempirical electronic structure package ---

                  #######################################################
                  #                        -***-                        #
                  #  Department of molecular theory and spectroscopy    #
                  #              Directorship: Frank Neese              #
                  # Max Planck Institute for Chemical Energy Conversion #
                  #                  D-45470 Muelheim/Ruhr              #
                  #                       Germany                       #
                  #                                                     #
                  #                  All rights reserved                #
                  #                        -***-                        #
                  #######################################################


                         Program Version 4.0.1 -  RELEASE  -


 With contributions from (in alphabetic order):
   Daniel Aravena         : Magnetic Properties
   Michael Atanasov       : Ab Initio Ligand Field Theory
   Ute Becker             : Parallelization
   Martin Brehm           : Molecular dynamics
   Dmytro Bykov           : SCF Hessian
   Vijay G. Chilkuri      : MRCI spin determinant printing
   Dipayan Datta          : RHF DLPNO-CCSD density
   Achintya Kumar Dutta   : EOM-CC, STEOM-CC
   Dmitry Ganyushin       : Spin-Orbit,Spin-Spin,Magnetic field MRCI
   Yang Guo               : DLPNO-NEVPT2, CIM, IAO-localization
   Andreas Hansen         : Spin unrestricted coupled pair/coupled cluster methods
   Lee Huntington         : MR-EOM, pCC
   Robert Izsak           : Overlap fitted RIJCOSX, COSX-SCS-MP3, EOM
   Christian Kollmar      : KDIIS, OOCD, Brueckner-CCSD(T), CCSD density
   Simone Kossmann        : Meta GGA functionals, TD-DFT gradient, OOMP2, MP2 Hessian
   Martin Krupicka        : AUTO-CI
   Dagmar Lenk            : GEPOL surface
   Dimitrios Liakos       : Extrapolation schemes; parallel MDCI
   Dimitrios Manganas     : ROCIS; embedding schemes
   Dimitrios Pantazis     : SARC Basis sets
   Taras Petrenko         : DFT Hessian,TD-DFT gradient, ASA, ECA, R-Raman, ABS, FL, XAS/XES, NRVS
   Peter Pinski           : DLPNO-MP2
   Christoph Reimann      : Effective Core Potentials
   Marius Retegan         : Local ZFS, SOC
   Christoph Riplinger    : Optimizer, TS searches, QM/MM, DLPNO-CCSD(T), (RO)-DLPNO pert. Triples
   Tobias Risthaus        : Range-separated hybrids, TD-DFT gradient, RPA, STAB
   Michael Roemelt        : Restricted open shell CIS
   Masaaki Saitow         : Open-shell DLPNO
   Barbara Sandhoefer     : DKH picture change effects
   Kantharuban Sivalingam : CASSCF convergence, NEVPT2, FIC-MRCI
   Georgi Stoychev        : AutoAux
   Boris Wezisla          : Elementary symmetry handling
   Frank Wennmohs         : Technical directorship


 We gratefully acknowledge several colleagues who have allowed us to
 interface, adapt or use parts of their codes:
   Stefan Grimme, W. Hujo, H. Kruse,             : VdW corrections, initial TS optimization,
                  C. Bannwarth                     DFT functionals, gCP, sTDA/sTD-DF
   Ed Valeev                                     : LibInt (2-el integral package), F12 methods
   Garnet Chan, S. Sharma, J. Yang, R. Olivares  : DMRG
   Ulf Ekstrom                                   : XCFun DFT Library
   Mihaly Kallay                                 : mrcc  (arbitrary order and MRCC methods)
   Andreas Klamt, Michael Diedenhofen            : otool_cosmo (COSMO solvation model)
   Jiri Pittner, Ondrej Demel                    : Mk-CCSD
   Frank Weinhold                                : gennbo (NPA and NBO analysis)
   Christopher J. Cramer and Donald G. Truhlar   : smd solvation model


 Your calculation uses the libint2 library for the computation of 2-el integrals
 For citations please refer to: http://libint.valeyev.net

 This ORCA versions uses:
   CBLAS   interface :  Fast vector & matrix operations
   LAPACKE interface :  Fast linear algebra routines
   SCALAPACK package :  Parallel linear algebra routines


Your calculation utilizes the basis: STO-3G
   H-Ne       : W. J. Hehre, R. F. Stewart and J. A. Pople, J. Chem. Phys. 2657 (1969).
   Na-Ar      : W. J. Hehre, R. Ditchfield, R. F. Stewart and J. A. Pople, J. Chem. Phys. 2769 (1970).
   K,Ca,Ga-Kr : W. J. Pietro, B. A. Levy, W. J. Hehre and R. F. Stewart, J. Am. Chem. Soc. 19, 2225 (1980).
   Sc-Zn,Y-Cd : W. J. Pietro and W. J. Hehre, J. Comp. Chem. 4, 241 (1983).

================================================================================
                                        WARNINGS
                       Please study these warnings very carefully!
================================================================================

WARNING: Gradients needed for Numerical Frequencies
  ===> : Setting RunTyp to EnGrad
Warning: TCutStore was < 0. Adjusted to Thresh (uncritical)

WARNING: Symmetry is not implemented for Numerical Hessian or Gradient calculations
  ===> : Turning off Symmetry

INFO   : the flag for use of LIBINT has been found!

================================================================================
                                       INPUT FILE
================================================================================
NAME = dvb_ir.inp
|  1> # Frequency single point restricted B3LYP/sto-3g calc
|  2> ! RKS STO-3G B3LYP UseSym NumFreq
|  3> * xyz 0 1
|  4>  C             -1.4152533224   0.2302217854   0.0000000000
|  5>  C              1.4152533224  -0.2302217854   0.0000000000
|  6>  C             -0.4951331558   1.3144608674   0.0000000000
|  7>  C              0.4951331558  -1.3144608674   0.0000000000
|  8>  C              0.8894090436   1.0909493743   0.0000000000
|  9>  C             -0.8894090436  -1.0909493743   0.0000000000
| 10>  H             -0.8795511985   2.3437343748   0.0000000000
| 11>  H              0.8795511985  -2.3437343748   0.0000000000
| 12>  H              1.5779041557   1.9450061275   0.0000000000
| 13>  H             -1.5779041557  -1.9450061275   0.0000000000
| 14>  C              2.8845844962  -0.5210893778   0.0000000000
| 15>  C             -2.8845844962   0.5210893778   0.0000000000
| 16>  H              3.1403356810  -1.5919605685   0.0000000000
| 17>  H             -3.1403356810   1.5919605685   0.0000000000
| 18>  C              3.8800428103   0.3822535424   0.0000000000
| 19>  C             -3.8800428103  -0.3822535424   0.0000000000
| 20>  H              3.6946765858   1.4624389570   0.0000000000
| 21>  H             -3.6946765858  -1.4624389570   0.0000000000
| 22>  H              4.9316453546   0.0711049543   0.0000000000
| 23>  H             -4.9316453546  -0.0711049543   0.0000000000
| 24> *
| 25> 
| 26> 
| 27>                          ****END OF INPUT****
================================================================================

                     *******************************
                     * Energy+Gradient Calculation *
                     *******************************

---------------------------------
CARTESIAN COORDINATES (ANGSTROEM)
---------------------------------
  C     -1.415253    0.230222    0.000000
  C      1.415253   -0.230222    0.000000
  C     -0.495133    1.314461    0.000000
  C      0.495133   -1.314461    0.000000
  C      0.889409    1.090949    0.000000
  C     -0.889409   -1.090949    0.000000
  H     -0.879551    2.343734    0.000000
  H      0.879551   -2.343734    0.000000
  H      1.577904    1.945006    0.000000
  H     -1.577904   -1.945006    0.000000
  C      2.884584   -0.521089    0.000000
  C     -2.884584    0.521089    0.000000
  H      3.140336   -1.591961    0.000000
  H     -3.140336    1.591961    0.000000
  C      3.880043    0.382254    0.000000
  C     -3.880043   -0.382254    0.000000
  H      3.694677    1.462439    0.000000
  H     -3.694677   -1.462439    0.000000
  H      4.931645    0.071105    0.000000
  H     -4.931645   -0.071105    0.000000

----------------------------
CARTESIAN COORDINATES (A.U.)
----------------------------
  NO LB      ZA    FRAG     MASS         X           Y           Z
   0 C     6.0000    0    12.011   -2.674441    0.435056    0.000000
   1 C     6.0000    0    12.011    2.674441   -0.435056    0.000000
   2 C     6.0000    0    12.011   -0.935666    2.483971    0.000000
   3 C     6.0000    0    12.011    0.935666   -2.483971    0.000000
   4 C     6.0000    0    12.011    1.680740    2.061596    0.000000
   5 C     6.0000    0    12.011   -1.680740   -2.061596    0.000000
   6 H     1.0000    0     1.008   -1.662111    4.429016    0.000000
   7 H     1.0000    0     1.008    1.662111   -4.429016    0.000000
   8 H     1.0000    0     1.008    2.981807    3.675529    0.000000
   9 H     1.0000    0     1.008   -2.981807   -3.675529    0.000000
  10 C     6.0000    0    12.011    5.451075   -0.984716    0.000000
  11 C     6.0000    0    12.011   -5.451075    0.984716    0.000000
  12 H     1.0000    0     1.008    5.934374   -3.008369    0.000000
  13 H     1.0000    0     1.008   -5.934374    3.008369    0.000000
  14 C     6.0000    0    12.011    7.332218    0.722355    0.000000
  15 C     6.0000    0    12.011   -7.332218   -0.722355    0.000000
  16 H     1.0000    0     1.008    6.981927    2.763609    0.000000
  17 H     1.0000    0     1.008   -6.981927   -2.763609    0.000000
  18 H     1.0000    0     1.008    9.319459    0.134369    0.000000
  19 H     1.0000    0     1.008   -9.319459   -0.134369    0.000000

--------------------------------
INTERNAL COORDINATES (ANGSTROEM)
--------------------------------
 C      0   0   0     0.000000000000     0.00000000     0.00000000
 C      1   0   0     2.867712703209     0.00000000     0.00000000
 C      1   2   0     1.422039207589    58.92046780     0.00000000
 C      2   1   3     1.422039207589    58.92046780   180.00000000
 C      3   1   2     1.402467286416   121.14866524     0.00000000
 C      4   2   1     1.402467286416   121.14866524     0.00000000
 H      3   1   2     1.098717973180   119.20109491   180.00000000
 H      4   2   1     1.098717973180   119.20109491   180.00000000
 H      5   3   1     1.097013426113   119.70357006   180.00000000
 H      6   4   2     1.097013426113   119.70357006   180.00000000
 C      2   1   3     1.497844469432   178.04202002   180.00000000
 C      1   2   3     1.497844469432   178.04202002     0.00000000
 H     11   2   5     1.100987636442   114.62953459   180.00000000
 H     12   1   6     1.100987636442   114.62953459   180.00000000
 C     11   2   5     1.344234237991   126.57992264     0.00000000
 C     12   1   6     1.344234237991   126.57992264     0.00000000
 H     15  11   2     1.095974984705   122.48517186     0.00000000
 H     16  12   1     1.095974984705   122.48517186     0.00000000
 H     15  11   2     1.096668297643   121.29492471   180.00000121
 H     16  12   1     1.096668297643   121.29492471   180.00000121

---------------------------
INTERNAL COORDINATES (A.U.)
---------------------------
 C      0   0   0     0.000000000000     0.00000000     0.00000000
 C      1   0   0     5.419191639833     0.00000000     0.00000000
 C      1   2   0     2.687264654042    58.92046780     0.00000000
 C      2   1   3     2.687264654042    58.92046780   180.00000000
 C      3   1   2     2.650279083110   121.14866524     0.00000000
 C      4   2   1     2.650279083110   121.14866524     0.00000000
 H      3   1   2     2.076276067727   119.20109491   180.00000000
 H      4   2   1     2.076276067727   119.20109491   180.00000000
 H      5   3   1     2.073054940588   119.70357006   180.00000000
 H      6   4   2     2.073054940588   119.70357006   180.00000000
 C      2   1   3     2.830515838436   178.04202002   180.00000000
 C      1   2   3     2.830515838436   178.04202002     0.00000000
 H     11   2   5     2.080565109708   114.62953459   180.00000000
 H     12   1   6     2.080565109708   114.62953459   180.00000000
 C     11   2   5     2.540234569643   126.57992264     0.00000000
 C     12   1   6     2.540234569643   126.57992264     0.00000000
 H     15  11   2     2.071092570722   122.48517186     0.00000000
 H     16  12   1     2.071092570722   122.48517186     0.00000000
 H     15  11   2     2.072402742299   121.29492471   180.00000121
 H     16  12   1     2.072402742299   121.29492471   180.00000121

---------------------
BASIS SET INFORMATION
---------------------
There are 2 groups of distinct atoms

 Group   1 Type C   : 6s3p contracted to 2s1p pattern {33/3}
 Group   2 Type H   : 3s contracted to 1s pattern {3}

Atom   0C    basis set group =>   1
Atom   1C    basis set group =>   1
Atom   2C    basis set group =>   1
Atom   3C    basis set group =>   1
Atom   4C    basis set group =>   1
Atom   5C    basis set group =>   1
Atom   6H    basis set group =>   2
Atom   7H    basis set group =>   2
Atom   8H    basis set group =>   2
Atom   9H    basis set group =>   2
Atom  10C    basis set group =>   1
Atom  11C    basis set group =>   1
Atom  12H    basis set group =>   2
Atom  13H    basis set group =>   2
Atom  14C    basis set group =>   1
Atom  15C    basis set group =>   1
Atom  16H    basis set group =>   2
Atom  17H    basis set group =>   2
Atom  18H    basis set group =>   2
Atom  19H    basis set group =>   2

Checking for AutoStart:
The File: dvb_ir.gbw exists
Trying to determine its content:
     ... Fine, the file contains calculation information
     ... Fine, the calculation information was read
     ... Fine, the file contains a basis set
     ... Fine, the basis set was read
     ... Fine, the file contains a geometry
     ... Fine, the geometry was read
     ... Fine, the file contains a set of orbitals
     ... Fine, the orbitals can be read
     => possible old guess file was deleted
     => GBW file was renamed to GES file
     => GES file is set as startup file
     => Guess is set to MORead
     ... now leaving AutoStart

------------------------------------------------------------------------------
                           ORCA GTO INTEGRAL CALCULATION
------------------------------------------------------------------------------

                         BASIS SET STATISTICS AND STARTUP INFO

 # of primitive gaussian shells          ...  120
 # of primitive gaussian functions       ...  180
 # of contracted shells                  ...   40
 # of contracted basis functions         ...   60
 Highest angular momentum                ...    1
 Maximum contraction depth               ...    3
 Integral package used                   ... LIBINT
 Integral threshhold            Thresh   ...  2.500e-11
 Primitive cut-off              TCut     ...  2.500e-12


------------------------------ INTEGRAL EVALUATION ----------------------------


 * One electron integrals 
 Pre-screening matrix                    ... done
 Shell pair data                         ... done (   0.001 sec)

-------------------------------------------------------------------------------
                                 ORCA SCF
-------------------------------------------------------------------------------

------------
SCF SETTINGS
------------
Hamiltonian:
 Density Functional     Method          .... DFT(GTOs)
 Exchange Functional    Exchange        .... B88
   X-Alpha parameter    XAlpha          ....  0.666667
   Becke's b parameter  XBeta           ....  0.004200
 Correlation Functional Correlation     .... LYP
 LDA part of GGA corr.  LDAOpt          .... VWN-5
 Gradients option       PostSCFGGA      .... off
 Hybrid DFT is turned on
   Fraction HF Exchange ScalHFX         ....  0.200000
   Scaling of DF-GGA-X  ScalDFX         ....  0.720000
   Scaling of DF-GGA-C  ScalDFC         ....  0.810000
   Scaling of DF-LDA-C  ScalLDAC        ....  1.000000
   Perturbative correction              ....  0.000000
   NL short-range parameter             ....  4.800000


General Settings:
 Integral files         IntName         .... dvb_ir
 Hartree-Fock type      HFTyp           .... RHF
 Total Charge           Charge          ....    0
 Multiplicity           Mult            ....    1
 Number of Electrons    NEL             ....   70
 Basis Dimension        Dim             ....   60
 Nuclear Repulsion      ENuc            ....    445.9369778699 Eh

Convergence Acceleration:
 DIIS                   CNVDIIS         .... on
   Start iteration      DIISMaxIt       ....    12
   Startup error        DIISStart       ....  0.200000
   # of expansion vecs  DIISMaxEq       ....     5
   Bias factor          DIISBfac        ....   1.050
   Max. coefficient     DIISMaxC        ....  10.000
 Newton-Raphson         CNVNR           .... off
 SOSCF                  CNVSOSCF        .... on
   Start iteration      SOSCFMaxIt      ....   150
   Startup grad/error   SOSCFStart      ....  0.003300
 Level Shifting         CNVShift        .... on
   Level shift para.    LevelShift      ....    0.2500
   Turn off err/grad.   ShiftErr        ....    0.0010
 Zerner damping         CNVZerner       .... off
 Static damping         CNVDamp         .... on
   Fraction old density DampFac         ....    0.7000
   Max. Damping (<1)    DampMax         ....    0.9800
   Min. Damping (>=0)   DampMin         ....    0.0000
   Turn off err/grad.   DampErr         ....    0.1000
 Fernandez-Rico         CNVRico         .... off

SCF Procedure:
 Maximum # iterations   MaxIter         ....   125
 SCF integral mode      SCFMode         .... Direct
   Integral package                     .... LIBINT
 Reset frequeny         DirectResetFreq ....    20
 Integral Threshold     Thresh          ....  2.500e-11 Eh
 Primitive CutOff       TCut            ....  2.500e-12 Eh

Convergence Tolerance:
 Convergence Check Mode ConvCheckMode   .... Total+1el-Energy
 Convergence forced     ConvForced      .... 0
 Energy Change          TolE            ....  1.000e-08 Eh
 1-El. energy change                    ....  1.000e-05 Eh
 Orbital Gradient       TolG            ....  1.000e-05
 Orbital Rotation angle TolX            ....  1.000e-05
 DIIS Error             TolErr          ....  5.000e-07


Diagonalization of the overlap matrix:
Smallest eigenvalue                        ... 1.815e-01
Time for diagonalization                   ...    0.206 sec
Threshold for overlap eigenvalues          ... 1.000e-08
Number of eigenvalues below threshold      ... 0
Time for construction of square roots      ...    0.000 sec
Total time needed                          ...    0.206 sec

---------------------
INITIAL GUESS: MOREAD
---------------------
Guess MOs are being read from file: dvb_ir.ges
Input Geometry matches current geometry (good)
Input basis set matches current basis set (good)
MOs were renormalized
MOs were reorthogonalized (Cholesky)
                      ------------------
                      INITIAL GUESS DONE (   0.0 sec)
                      ------------------
-------------------
DFT GRID GENERATION
-------------------

General Integration Accuracy     IntAcc      ...  4.340
Radial Grid Type                 RadialGrid  ... Gauss-Chebyshev
Angular Grid (max. acc.)         AngularGrid ... Lebedev-110
Angular grid pruning method      GridPruning ... 3 (G Style)
Weight generation scheme         WeightScheme... Becke
Basis function cutoff            BFCut       ...    1.0000e-11
Integration weight cutoff        WCut        ...    1.0000e-14
Grids for H and He will be reduced by one unit

# of grid points (after initial pruning)     ...  24500 (   0.0 sec)
# of grid points (after weights+screening)   ...  22584 (   0.1 sec)
nearest neighbour list constructed           ...    0.0 sec
Grid point re-assignment to atoms done       ...    0.0 sec
Grid point division into batches done        ...    0.0 sec
Reduced shell lists constructed in    0.4 sec

Total number of grid points                  ...    22584
Total number of batches                      ...      360
Average number of points per batch           ...       62
Average number of grid points per atom       ...     1129
Average number of shells per batch           ...    27.07 (67.68%)
Average number of basis functions per batch  ...    44.25 (73.75%)
Average number of large shells per batch     ...    20.69 (76.42%)
Average number of large basis fcns per batch ...    34.61 (78.22%)
Maximum spatial batch extension              ...  16.50, 21.02, 22.44 au
Average spatial batch extension              ...   3.25,  3.97,  5.12 au

Time for grid setup =    0.535 sec

--------------
SCF ITERATIONS
--------------
ITER       Energy         Delta-E        Max-DP      RMS-DP      [F,P]     Damp
               ***  Starting incremental Fock matrix formation  ***
                      *** Initiating the SOSCF procedure ***
                      *** Re-Reading the Fockian *** 
                      *** Removing any level shift *** 
ITER      Energy       Delta-E        Grad      Rot      Max-DP    RMS-DP
  0   -382.04929587 -382.0492958710  0.000000  0.000000  0.000001  0.000000
               *** Restarting incremental Fock matrix formation ***
                 **** Energy Check signals convergence ****
              ***Rediagonalizing the Fockian in SOSCF/NRSCF***

               *****************************************************
               *                     SUCCESS                       *
               *           SCF CONVERGED AFTER   1 CYCLES          *
               *****************************************************

Setting up the final grid:

General Integration Accuracy     IntAcc      ...  4.670
Radial Grid Type                 RadialGrid  ... Gauss-Chebyshev
Angular Grid (max. acc.)         AngularGrid ... Lebedev-302
Angular grid pruning method      GridPruning ... 3 (G Style)
Weight generation scheme         WeightScheme... Becke
Basis function cutoff            BFCut       ...    1.0000e-11
Integration weight cutoff        WCut        ...    1.0000e-14
Grids for H and He will be reduced by one unit

# of grid points (after initial pruning)     ...  96060 (   0.1 sec)
# of grid points (after weights+screening)   ...  87244 (   0.5 sec)
nearest neighbour list constructed           ...    0.0 sec
Grid point re-assignment to atoms done       ...    0.0 sec
Grid point division into batches done        ...    0.4 sec
Reduced shell lists constructed in    1.5 sec

Total number of grid points                  ...    87244
Total number of batches                      ...     1372
Average number of points per batch           ...       63
Average number of grid points per atom       ...     4362
Average number of shells per batch           ...    24.85 (62.13%)
Average number of basis functions per batch  ...    40.86 (68.10%)
Average number of large shells per batch     ...    18.31 (73.66%)
Average number of large basis fcns per batch ...    30.84 (75.47%)
Maximum spatial batch extension              ...  17.92, 17.18, 24.37 au
Average spatial batch extension              ...   2.34,  2.51,  2.86 au

Final grid set up in    2.1 sec
Final integration                            ... done (   1.2 sec)
Change in XC energy                          ...    -0.001441408
Integrated number of electrons               ...    69.999765755
Previous integrated no of electrons          ...    69.996766270

----------------
TOTAL SCF ENERGY
----------------

Total Energy       :         -382.05073728 Eh          -10396.12909 eV

Components:
Nuclear Repulsion  :          445.93697787 Eh           12134.56208 eV
Electronic Energy  :         -827.98771515 Eh          -22530.69117 eV
One Electron Energy:        -1400.63656529 Eh          -38113.25858 eV
Two Electron Energy:          572.64885014 Eh           15582.56741 eV

Virial components:
Potential Energy   :         -757.89279846 Eh          -20623.31152 eV
Kinetic Energy     :          375.84206118 Eh           10227.18242 eV
Virial Ratio       :            2.01651938


DFT components:
N(Alpha)           :       34.999882877610 electrons
N(Beta)            :       34.999882877610 electrons
N(Total)           :       69.999765755219 electrons
E(X)               :      -43.808382352627 Eh       
E(C)               :       -2.717831035609 Eh       
E(XC)              :      -46.526213388236 Eh       

---------------
SCF CONVERGENCE
---------------

  Last Energy change         ...    2.2737e-12  Tolerance :   1.0000e-08
  Last MAX-Density change    ...    3.4957e-07  Tolerance :   1.0000e-07
  Last RMS-Density change    ...    2.8778e-08  Tolerance :   5.0000e-09
  Last Orbital Gradient      ...    9.0168e-08  Tolerance :   1.0000e-05
  Last Orbital Rotation      ...    3.4194e-07  Tolerance :   1.0000e-05

             **** THE GBW FILE WAS UPDATED (dvb_ir.gbw) ****
             **** DENSITY FILE WAS UPDATED (dvb_ir.scfp.tmp) ****
             **** ENERGY FILE WAS UPDATED (dvb_ir.en.tmp) ****
----------------
ORBITAL ENERGIES
----------------

  NO   OCC          E(Eh)            E(eV) 
   0   2.0000     -10.016170      -272.5538 
   1   2.0000     -10.016121      -272.5525 
   2   2.0000     -10.004054      -272.2241 
   3   2.0000     -10.004053      -272.2241 
   4   2.0000     -10.002986      -272.1951 
   5   2.0000     -10.002983      -272.1950 
   6   2.0000     -10.002343      -272.1776 
   7   2.0000     -10.002199      -272.1737 
   8   2.0000      -9.988396      -271.7981 
   9   2.0000      -9.988396      -271.7981 
  10   2.0000      -0.805807       -21.9271 
  11   2.0000      -0.750299       -20.4167 
  12   2.0000      -0.714199       -19.4343 
  13   2.0000      -0.696255       -18.9460 
  14   2.0000      -0.663619       -18.0580 
  15   2.0000      -0.584890       -15.9157 
  16   2.0000      -0.555452       -15.1146 
  17   2.0000      -0.527883       -14.3644 
  18   2.0000      -0.506296       -13.7770 
  19   2.0000      -0.453994       -12.3538 
  20   2.0000      -0.435549       -11.8519 
  21   2.0000      -0.407443       -11.0871 
  22   2.0000      -0.394064       -10.7230 
  23   2.0000      -0.392391       -10.6775 
  24   2.0000      -0.370794       -10.0898 
  25   2.0000      -0.347359        -9.4521 
  26   2.0000      -0.343428        -9.3452 
  27   2.0000      -0.320825        -8.7301 
  28   2.0000      -0.307466        -8.3666 
  29   2.0000      -0.289364        -7.8740 
  30   2.0000      -0.283878        -7.7247 
  31   2.0000      -0.259759        -7.0684 
  32   2.0000      -0.208560        -5.6752 
  33   2.0000      -0.191490        -5.2107 
  34   2.0000      -0.149226        -4.0607 
  35   0.0000       0.041211         1.1214 
  36   0.0000       0.093879         2.5546 
  37   0.0000       0.114467         3.1148 
  38   0.0000       0.185923         5.0592 
  39   0.0000       0.276044         7.5115 
  40   0.0000       0.336079         9.1452 
  41   0.0000       0.344208         9.3664 
  42   0.0000       0.383208        10.4276 
  43   0.0000       0.384854        10.4724 
  44   0.0000       0.413988        11.2652 
  45   0.0000       0.414846        11.2885 
  46   0.0000       0.429345        11.6831 
  47   0.0000       0.443030        12.0555 
  48   0.0000       0.457424        12.4471 
  49   0.0000       0.481990        13.1156 
  50   0.0000       0.529257        14.4018 
  51   0.0000       0.549985        14.9659 
  52   0.0000       0.580122        15.7859 
  53   0.0000       0.602150        16.3853 
  54   0.0000       0.628575        17.1044 
  55   0.0000       0.643480        17.5100 
  56   0.0000       0.686497        18.6805 
  57   0.0000       0.721012        19.6197 
  58   0.0000       0.782766        21.3002 
  59   0.0000       0.797989        21.7144 

                    ********************************
                    * MULLIKEN POPULATION ANALYSIS *
                    ********************************

-----------------------
MULLIKEN ATOMIC CHARGES
-----------------------
   0 C :   -0.004548
   1 C :   -0.004548
   2 C :   -0.076284
   3 C :   -0.076284
   4 C :   -0.076827
   5 C :   -0.076827
   6 H :    0.077594
   7 H :    0.077594
   8 H :    0.079067
   9 H :    0.079067
  10 C :   -0.076013
  11 C :   -0.076013
  12 H :    0.076277
  13 H :    0.076277
  14 C :   -0.154122
  15 C :   -0.154122
  16 H :    0.075783
  17 H :    0.075783
  18 H :    0.079073
  19 H :    0.079073
Sum of atomic charges:   -0.0000000

--------------------------------
MULLIKEN REDUCED ORBITAL CHARGES
--------------------------------
  0 C s       :     3.136832  s :     3.136832
      pz      :     0.993544  p :     2.867716
      px      :     0.929515
      py      :     0.944658
  1 C s       :     3.136832  s :     3.136832
      pz      :     0.993544  p :     2.867716
      px      :     0.929515
      py      :     0.944658
  2 C s       :     3.150895  s :     3.150895
      pz      :     1.001407  p :     2.925389
      px      :     0.950748
      py      :     0.973233
  3 C s       :     3.150895  s :     3.150895
      pz      :     1.001407  p :     2.925389
      px      :     0.950748
      py      :     0.973233
  4 C s       :     3.148717  s :     3.148717
      pz      :     1.000837  p :     2.928110
      px      :     0.961786
      py      :     0.965487
  5 C s       :     3.148717  s :     3.148717
      pz      :     1.000837  p :     2.928110
      px      :     0.961786
      py      :     0.965487
  6 H s       :     0.922406  s :     0.922406
  7 H s       :     0.922406  s :     0.922406
  8 H s       :     0.920933  s :     0.920933
  9 H s       :     0.920933  s :     0.920933
 10 C s       :     3.153779  s :     3.153779
      pz      :     0.998137  p :     2.922234
      px      :     0.935517
      py      :     0.988580
 11 C s       :     3.153779  s :     3.153779
      pz      :     0.998137  p :     2.922234
      px      :     0.935517
      py      :     0.988580
 12 H s       :     0.923723  s :     0.923723
 13 H s       :     0.923723  s :     0.923723
 14 C s       :     3.168726  s :     3.168726
      pz      :     1.006075  p :     2.985396
      px      :     0.988125
      py      :     0.991196
 15 C s       :     3.168726  s :     3.168726
      pz      :     1.006075  p :     2.985396
      px      :     0.988125
      py      :     0.991196
 16 H s       :     0.924217  s :     0.924217
 17 H s       :     0.924217  s :     0.924217
 18 H s       :     0.920927  s :     0.920927
 19 H s       :     0.920927  s :     0.920927


                     *******************************
                     * LOEWDIN POPULATION ANALYSIS *
                     *******************************

----------------------
LOEWDIN ATOMIC CHARGES
----------------------
   0 C :    0.003594
   1 C :    0.003594
   2 C :   -0.043612
   3 C :   -0.043612
   4 C :   -0.043975
   5 C :   -0.043975
   6 H :    0.041920
   7 H :    0.041920
   8 H :    0.043568
   9 H :    0.043568
  10 C :   -0.038770
  11 C :   -0.038770
  12 H :    0.040731
  13 H :    0.040731
  14 C :   -0.091138
  15 C :   -0.091138
  16 H :    0.042797
  17 H :    0.042797
  18 H :    0.044883
  19 H :    0.044883

-------------------------------
LOEWDIN REDUCED ORBITAL CHARGES
-------------------------------
  0 C s       :     3.032313  s :     3.032313
      pz      :     0.992628  p :     2.964094
      px      :     0.975480
      py      :     0.995986
  1 C s       :     3.032313  s :     3.032313
      pz      :     0.992628  p :     2.964094
      px      :     0.975480
      py      :     0.995986
  2 C s       :     3.031757  s :     3.031757
      pz      :     1.001720  p :     3.011855
      px      :     1.003418
      py      :     1.006717
  3 C s       :     3.031757  s :     3.031757
      pz      :     1.001720  p :     3.011855
      px      :     1.003418
      py      :     1.006717
  4 C s       :     3.029446  s :     3.029446
      pz      :     1.001249  p :     3.014529
      px      :     1.007506
      py      :     1.005774
  5 C s       :     3.029446  s :     3.029446
      pz      :     1.001249  p :     3.014529
      px      :     1.007506
      py      :     1.005774
  6 H s       :     0.958080  s :     0.958080
  7 H s       :     0.958080  s :     0.958080
  8 H s       :     0.956432  s :     0.956432
  9 H s       :     0.956432  s :     0.956432
 10 C s       :     3.033482  s :     3.033482
      pz      :     0.997510  p :     3.005288
      px      :     0.986293
      py      :     1.021485
 11 C s       :     3.033482  s :     3.033482
      pz      :     0.997510  p :     3.005288
      px      :     0.986293
      py      :     1.021485
 12 H s       :     0.959269  s :     0.959269
 13 H s       :     0.959269  s :     0.959269
 14 C s       :     3.033003  s :     3.033003
      pz      :     1.006893  p :     3.058135
      px      :     1.025497
      py      :     1.025745
 15 C s       :     3.033003  s :     3.033003
      pz      :     1.006893  p :     3.058135
      px      :     1.025497
      py      :     1.025745
 16 H s       :     0.957203  s :     0.957203
 17 H s       :     0.957203  s :     0.957203
 18 H s       :     0.955117  s :     0.955117
 19 H s       :     0.955117  s :     0.955117


                      *****************************
                      * MAYER POPULATION ANALYSIS *
                      *****************************

  NA   - Mulliken gross atomic population
  ZA   - Total nuclear charge
  QA   - Mulliken gross atomic charge
  VA   - Mayer's total valence
  BVA  - Mayer's bonded valence
  FA   - Mayer's free valence

  ATOM       NA         ZA         QA         VA         BVA        FA
  0 C      6.0045     6.0000    -0.0045     3.9731     3.9731    -0.0000
  1 C      6.0045     6.0000    -0.0045     3.9731     3.9731    -0.0000
  2 C      6.0763     6.0000    -0.0763     3.9693     3.9693    -0.0000
  3 C      6.0763     6.0000    -0.0763     3.9693     3.9693     0.0000
  4 C      6.0768     6.0000    -0.0768     3.9701     3.9701    -0.0000
  5 C      6.0768     6.0000    -0.0768     3.9701     3.9701    -0.0000
  6 H      0.9224     1.0000     0.0776     0.9940     0.9940    -0.0000
  7 H      0.9224     1.0000     0.0776     0.9940     0.9940    -0.0000
  8 H      0.9209     1.0000     0.0791     0.9937     0.9937    -0.0000
  9 H      0.9209     1.0000     0.0791     0.9937     0.9937    -0.0000
 10 C      6.0760     6.0000    -0.0760     3.9682     3.9682     0.0000
 11 C      6.0760     6.0000    -0.0760     3.9682     3.9682     0.0000
 12 H      0.9237     1.0000     0.0763     0.9942     0.9942     0.0000
 13 H      0.9237     1.0000     0.0763     0.9942     0.9942     0.0000
 14 C      6.1541     6.0000    -0.1541     3.9649     3.9649    -0.0000
 15 C      6.1541     6.0000    -0.1541     3.9649     3.9649    -0.0000
 16 H      0.9242     1.0000     0.0758     0.9943     0.9943     0.0000
 17 H      0.9242     1.0000     0.0758     0.9943     0.9943     0.0000
 18 H      0.9209     1.0000     0.0791     0.9937     0.9937     0.0000
 19 H      0.9209     1.0000     0.0791     0.9937     0.9937     0.0000

  Mayer bond orders larger than 0.1
B(  0-C ,  2-C ) :   1.3630 B(  0-C ,  5-C ) :   1.3651 B(  0-C , 11-C ) :   1.0665 
B(  1-C ,  3-C ) :   1.3630 B(  1-C ,  4-C ) :   1.3651 B(  1-C , 10-C ) :   1.0665 
B(  2-C ,  4-C ) :   1.4652 B(  2-C ,  6-H ) :   0.9614 B(  3-C ,  5-C ) :   1.4652 
B(  3-C ,  7-H ) :   0.9614 B(  4-C ,  5-C ) :   0.1022 B(  4-C ,  8-H ) :   0.9595 
B(  5-C ,  9-H ) :   0.9595 B( 10-C , 12-H ) :   0.9592 B( 10-C , 14-C ) :   1.9012 
B( 11-C , 13-H ) :   0.9592 B( 11-C , 15-C ) :   1.9012 B( 14-C , 16-H ) :   0.9665 
B( 14-C , 18-H ) :   0.9693 B( 15-C , 17-H ) :   0.9665 B( 15-C , 19-H ) :   0.9693 


-------
TIMINGS
-------

Total SCF time: 0 days 0 hours 0 min 7 sec 

Total time                  ....       7.630 sec
Sum of individual times     ....       7.374 sec  ( 96.7%)

Fock matrix formation       ....       4.740 sec  ( 62.1%)
  XC integration            ....       1.844 sec  ( 38.9% of F)
    Basis function eval.    ....       1.133 sec  ( 61.5% of XC)
    Density eval.           ....       0.207 sec  ( 11.2% of XC)
    XC-Functional eval.     ....       0.239 sec  ( 13.0% of XC)
    XC-Potential eval.      ....       0.221 sec  ( 12.0% of XC)
Diagonalization             ....       0.001 sec  (  0.0%)
Density matrix formation    ....       0.000 sec  (  0.0%)
Population analysis         ....       0.002 sec  (  0.0%)
Initial guess               ....       0.001 sec  (  0.0%)
Orbital Transformation      ....       0.000 sec  (  0.0%)
Orbital Orthonormalization  ....       0.001 sec  (  0.0%)
DIIS solution               ....       0.000 sec  (  0.0%)
SOSCF solution              ....       0.009 sec  (  0.1%)
Grid generation             ....       2.621 sec  ( 34.4%)

-------------------------   --------------------
FINAL SINGLE POINT ENERGY      -382.050737278916
-------------------------   --------------------

------------------------------------------------------------------------------
                         ORCA SCF GRADIENT CALCULATION
------------------------------------------------------------------------------

Gradient of the Kohn-Sham DFT energy:
Kohn-Sham wavefunction type      ... RKS
Hartree-Fock exchange scaling    ...    0.200
Number of operators              ...    1
Number of atoms                  ...   20
Basis set dimensions             ...   60
Integral neglect threshold       ... 2.5e-11
Integral primitive cutoff        ... 2.5e-12

Nuclear repulsion gradient       ... done
One Electron Gradient            ... done
Pre-screening matrix             ... done
Starting the two electron gradient:
Two electron gradient done
Exchange-correlation gradient    ... done

------------------
CARTESIAN GRADIENT
------------------

   1   C   :    0.000783692    0.000162806    0.000000000
   2   C   :   -0.000783693   -0.000162807    0.000000000
   3   C   :   -0.001181991    0.000197103   -0.000000000
   4   C   :    0.001181991   -0.000197105   -0.000000000
   5   C   :   -0.000204399    0.001292952    0.000000000
   6   C   :    0.000204395   -0.001292952    0.000000000
   7   H   :    0.000158211    0.000059247    0.000000000
   8   H   :   -0.000158210   -0.000059246    0.000000000
   9   H   :    0.000208216   -0.000956825   -0.000000000
  10   H   :   -0.000208217    0.000956823    0.000000000
  11   C   :   -0.000587709    0.000487836    0.000000000
  12   C   :    0.000587710   -0.000487835   -0.000000000
  13   H   :    0.000459534   -0.000186074    0.000000000
  14   H   :   -0.000459534    0.000186075   -0.000000000
  15   C   :   -0.000052695   -0.000102490   -0.000000000
  16   C   :    0.000052695    0.000102491   -0.000000000
  17   H   :   -0.000304937   -0.000294298   -0.000000000
  18   H   :    0.000304941    0.000294299   -0.000000000
  19   H   :    0.000288065   -0.000056640    0.000000000
  20   H   :   -0.000288065    0.000056641    0.000000000

Difference to translation invariance:
           :    0.0000000000   -0.0000000000   -0.0000000000

Norm of the cartesian gradient     ...    0.0034309748
RMS gradient                       ...    0.0004429369
MAX gradient                       ...    0.0012929517

-------
TIMINGS
-------

Total SCF gradient time            ...       11.045 sec

One electron gradient       ....       0.213 sec  (  1.9%)
Prescreening matrices       ....       0.035 sec  (  0.3%)
Two electron gradient       ....       3.804 sec  ( 34.4%)
XC gradient                 ....       6.847 sec  ( 62.0%)

                            ***************************************
                            *     ORCA property calculations      *
                            ***************************************

                                    ---------------------
                                    Active property flags
                                    ---------------------
   (+) Dipole Moment


------------------------------------------------------------------------------
                       ORCA ELECTRIC PROPERTIES CALCULATION
------------------------------------------------------------------------------

Dipole Moment Calculation                       ... on
Quadrupole Moment Calculation                   ... off
Polarizability Calculation                      ... off
GBWName                                         ... dvb_ir.gbw
Electron density file                           ... dvb_ir.scfp.tmp
The origin for moment calculation is the CENTER OF MASS  = ( 0.000000,  0.000000  0.000000)

-------------
DIPOLE MOMENT
-------------
                                X             Y             Z
Electronic contribution:     -0.00000       0.00000       0.00000
Nuclear contribution   :      0.00000       0.00000       0.00000
                        -----------------------------------------
Total Dipole Moment    :     -0.00000       0.00000       0.00000
                        -----------------------------------------
Magnitude (a.u.)       :      0.00000
Magnitude (Debye)      :      0.00000


----------------------------------------------------------------------------
                           ORCA NUMERICAL FREQUENCIES
----------------------------------------------------------------------------

Number of atoms                ... 20
Central differences            ... used
Number of displacements        ... 120
Numerical increment            ...  0.005 bohr
IR-spectrum generation         ... on
Raman-spectrum generation      ... off
Surface Crossing Hessian       ... off

The output will be reduced. Please look at the following files:
SCF program output             ... >dvb_ir.lastscf
Integral program output        ... >dvb_ir.lastint
Gradient program output        ... >dvb_ir.lastgrad
Dipole moment program output   ... >dvb_ir.lastmom


         <<<Energy and Gradient at the input geometry>>>
The origin for moment calculation is the CENTER OF MASS  = ( 0.000000,  0.000000  0.000000)
             <<<Displacing   1/coordinate 1 (+)>>>
The origin for moment calculation is the CENTER OF MASS  = ( 0.000461,  0.000000  0.000000)
             <<<Displacing   1/coordinate 1 (-)>>>
The origin for moment calculation is the CENTER OF MASS  = (-0.000461,  0.000000  0.000000)
             <<<Displacing   1/coordinate 2 (+)>>>
The origin for moment calculation is the CENTER OF MASS  = ( 0.000000,  0.000461  0.000000)
             <<<Displacing   1/coordinate 2 (-)>>>
The origin for moment calculation is the CENTER OF MASS  = ( 0.000000, -0.000461  0.000000)
             <<<Displacing   1/coordinate 3 (+)>>>
The origin for moment calculation is the CENTER OF MASS  = ( 0.000000,  0.000000  0.000461)
             <<<Displacing   1/coordinate 3 (-)>>>
The origin for moment calculation is the CENTER OF MASS  = ( 0.000000,  0.000000 -0.000461)
             <<<Displacing   2/coordinate 1 (+)>>>
The origin for moment calculation is the CENTER OF MASS  = ( 0.000461,  0.000000  0.000000)
             <<<Displacing   2/coordinate 1 (-)>>>
The origin for moment calculation is the CENTER OF MASS  = (-0.000461,  0.000000  0.000000)
             <<<Displacing   2/coordinate 2 (+)>>>
The origin for moment calculation is the CENTER OF MASS  = ( 0.000000,  0.000461  0.000000)
             <<<Displacing   2/coordinate 2 (-)>>>
The origin for moment calculation is the CENTER OF MASS  = ( 0.000000, -0.000461  0.000000)
             <<<Displacing   2/coordinate 3 (+)>>>
The origin for moment calculation is the CENTER OF MASS  = ( 0.000000,  0.000000  0.000461)
             <<<Displacing   2/coordinate 3 (-)>>>
The origin for moment calculation is the CENTER OF MASS  = ( 0.000000,  0.000000 -0.000461)
             <<<Displacing   3/coordinate 1 (+)>>>
The origin for moment calculation is the CENTER OF MASS  = ( 0.000461,  0.000000  0.000000)
             <<<Displacing   3/coordinate 1 (-)>>>
The origin for moment calculation is the CENTER OF MASS  = (-0.000461,  0.000000  0.000000)
             <<<Displacing   3/coordinate 2 (+)>>>
The origin for moment calculation is the CENTER OF MASS  = ( 0.000000,  0.000461  0.000000)
             <<<Displacing   3/coordinate 2 (-)>>>
The origin for moment calculation is the CENTER OF MASS  = ( 0.000000, -0.000461  0.000000)
             <<<Displacing   3/coordinate 3 (+)>>>
The origin for moment calculation is the CENTER OF MASS  = ( 0.000000,  0.000000  0.000461)
             <<<Displacing   3/coordinate 3 (-)>>>
The origin for moment calculation is the CENTER OF MASS  = ( 0.000000,  0.000000 -0.000461)
             <<<Displacing   4/coordinate 1 (+)>>>
The origin for moment calculation is the CENTER OF MASS  = ( 0.000461,  0.000000  0.000000)
             <<<Displacing   4/coordinate 1 (-)>>>
The origin for moment calculation is the CENTER OF MASS  = (-0.000461,  0.000000  0.000000)
             <<<Displacing   4/coordinate 2 (+)>>>
The origin for moment calculation is the CENTER OF MASS  = ( 0.000000,  0.000461  0.000000)
             <<<Displacing   4/coordinate 2 (-)>>>
The origin for moment calculation is the CENTER OF MASS  = ( 0.000000, -0.000461  0.000000)
             <<<Displacing   4/coordinate 3 (+)>>>
The origin for moment calculation is the CENTER OF MASS  = ( 0.000000,  0.000000  0.000461)
             <<<Displacing   4/coordinate 3 (-)>>>
The origin for moment calculation is the CENTER OF MASS  = ( 0.000000,  0.000000 -0.000461)
             <<<Displacing   5/coordinate 1 (+)>>>
The origin for moment calculation is the CENTER OF MASS  = ( 0.000461,  0.000000  0.000000)
             <<<Displacing   5/coordinate 1 (-)>>>
The origin for moment calculation is the CENTER OF MASS  = (-0.000461,  0.000000  0.000000)
             <<<Displacing   5/coordinate 2 (+)>>>
The origin for moment calculation is the CENTER OF MASS  = ( 0.000000,  0.000461  0.000000)
             <<<Displacing   5/coordinate 2 (-)>>>
The origin for moment calculation is the CENTER OF MASS  = ( 0.000000, -0.000461  0.000000)
             <<<Displacing   5/coordinate 3 (+)>>>
The origin for moment calculation is the CENTER OF MASS  = ( 0.000000,  0.000000  0.000461)
             <<<Displacing   5/coordinate 3 (-)>>>
The origin for moment calculation is the CENTER OF MASS  = ( 0.000000,  0.000000 -0.000461)
             <<<Displacing   6/coordinate 1 (+)>>>
The origin for moment calculation is the CENTER OF MASS  = ( 0.000461,  0.000000  0.000000)
             <<<Displacing   6/coordinate 1 (-)>>>
The origin for moment calculation is the CENTER OF MASS  = (-0.000461,  0.000000  0.000000)
             <<<Displacing   6/coordinate 2 (+)>>>
The origin for moment calculation is the CENTER OF MASS  = ( 0.000000,  0.000461  0.000000)
             <<<Displacing   6/coordinate 2 (-)>>>
The origin for moment calculation is the CENTER OF MASS  = ( 0.000000, -0.000461  0.000000)
             <<<Displacing   6/coordinate 3 (+)>>>
The origin for moment calculation is the CENTER OF MASS  = ( 0.000000,  0.000000  0.000461)
             <<<Displacing   6/coordinate 3 (-)>>>
The origin for moment calculation is the CENTER OF MASS  = ( 0.000000,  0.000000 -0.000461)
             <<<Displacing   7/coordinate 1 (+)>>>
The origin for moment calculation is the CENTER OF MASS  = ( 0.000039,  0.000000  0.000000)
             <<<Displacing   7/coordinate 1 (-)>>>
The origin for moment calculation is the CENTER OF MASS  = (-0.000039,  0.000000  0.000000)
             <<<Displacing   7/coordinate 2 (+)>>>
The origin for moment calculation is the CENTER OF MASS  = ( 0.000000,  0.000039  0.000000)
             <<<Displacing   7/coordinate 2 (-)>>>
The origin for moment calculation is the CENTER OF MASS  = ( 0.000000, -0.000039  0.000000)
             <<<Displacing   7/coordinate 3 (+)>>>
The origin for moment calculation is the CENTER OF MASS  = ( 0.000000,  0.000000  0.000039)
             <<<Displacing   7/coordinate 3 (-)>>>
The origin for moment calculation is the CENTER OF MASS  = ( 0.000000,  0.000000 -0.000039)
             <<<Displacing   8/coordinate 1 (+)>>>
The origin for moment calculation is the CENTER OF MASS  = ( 0.000039,  0.000000  0.000000)
             <<<Displacing   8/coordinate 1 (-)>>>
The origin for moment calculation is the CENTER OF MASS  = (-0.000039,  0.000000  0.000000)
             <<<Displacing   8/coordinate 2 (+)>>>
The origin for moment calculation is the CENTER OF MASS  = ( 0.000000,  0.000039  0.000000)
             <<<Displacing   8/coordinate 2 (-)>>>
The origin for moment calculation is the CENTER OF MASS  = ( 0.000000, -0.000039  0.000000)
             <<<Displacing   8/coordinate 3 (+)>>>
The origin for moment calculation is the CENTER OF MASS  = ( 0.000000,  0.000000  0.000039)
             <<<Displacing   8/coordinate 3 (-)>>>
The origin for moment calculation is the CENTER OF MASS  = ( 0.000000,  0.000000 -0.000039)
             <<<Displacing   9/coordinate 1 (+)>>>
The origin for moment calculation is the CENTER OF MASS  = ( 0.000039,  0.000000  0.000000)
             <<<Displacing   9/coordinate 1 (-)>>>
The origin for moment calculation is the CENTER OF MASS  = (-0.000039,  0.000000  0.000000)
             <<<Displacing   9/coordinate 2 (+)>>>
The origin for moment calculation is the CENTER OF MASS  = ( 0.000000,  0.000039  0.000000)
             <<<Displacing   9/coordinate 2 (-)>>>
The origin for moment calculation is the CENTER OF MASS  = ( 0.000000, -0.000039  0.000000)
             <<<Displacing   9/coordinate 3 (+)>>>
The origin for moment calculation is the CENTER OF MASS  = ( 0.000000,  0.000000  0.000039)
             <<<Displacing   9/coordinate 3 (-)>>>
The origin for moment calculation is the CENTER OF MASS  = ( 0.000000,  0.000000 -0.000039)
             <<<Displacing  10/coordinate 1 (+)>>>
The origin for moment calculation is the CENTER OF MASS  = ( 0.000039,  0.000000  0.000000)
             <<<Displacing  10/coordinate 1 (-)>>>
The origin for moment calculation is the CENTER OF MASS  = (-0.000039,  0.000000  0.000000)
             <<<Displacing  10/coordinate 2 (+)>>>
The origin for moment calculation is the CENTER OF MASS  = ( 0.000000,  0.000039  0.000000)
             <<<Displacing  10/coordinate 2 (-)>>>
The origin for moment calculation is the CENTER OF MASS  = ( 0.000000, -0.000039  0.000000)
             <<<Displacing  10/coordinate 3 (+)>>>
The origin for moment calculation is the CENTER OF MASS  = ( 0.000000,  0.000000  0.000039)
             <<<Displacing  10/coordinate 3 (-)>>>
The origin for moment calculation is the CENTER OF MASS  = ( 0.000000,  0.000000 -0.000039)
             <<<Displacing  11/coordinate 1 (+)>>>
The origin for moment calculation is the CENTER OF MASS  = ( 0.000461,  0.000000  0.000000)
             <<<Displacing  11/coordinate 1 (-)>>>
The origin for moment calculation is the CENTER OF MASS  = (-0.000461,  0.000000  0.000000)
             <<<Displacing  11/coordinate 2 (+)>>>
The origin for moment calculation is the CENTER OF MASS  = ( 0.000000,  0.000461  0.000000)
             <<<Displacing  11/coordinate 2 (-)>>>
The origin for moment calculation is the CENTER OF MASS  = ( 0.000000, -0.000461  0.000000)
             <<<Displacing  11/coordinate 3 (+)>>>
The origin for moment calculation is the CENTER OF MASS  = ( 0.000000,  0.000000  0.000461)
             <<<Displacing  11/coordinate 3 (-)>>>
The origin for moment calculation is the CENTER OF MASS  = ( 0.000000,  0.000000 -0.000461)
             <<<Displacing  12/coordinate 1 (+)>>>
The origin for moment calculation is the CENTER OF MASS  = ( 0.000461,  0.000000  0.000000)
             <<<Displacing  12/coordinate 1 (-)>>>
The origin for moment calculation is the CENTER OF MASS  = (-0.000461,  0.000000  0.000000)
             <<<Displacing  12/coordinate 2 (+)>>>
The origin for moment calculation is the CENTER OF MASS  = ( 0.000000,  0.000461  0.000000)
             <<<Displacing  12/coordinate 2 (-)>>>
The origin for moment calculation is the CENTER OF MASS  = ( 0.000000, -0.000461  0.000000)
             <<<Displacing  12/coordinate 3 (+)>>>
The origin for moment calculation is the CENTER OF MASS  = ( 0.000000,  0.000000  0.000461)
             <<<Displacing  12/coordinate 3 (-)>>>
The origin for moment calculation is the CENTER OF MASS  = ( 0.000000,  0.000000 -0.000461)
             <<<Displacing  13/coordinate 1 (+)>>>
The origin for moment calculation is the CENTER OF MASS  = ( 0.000039,  0.000000  0.000000)
             <<<Displacing  13/coordinate 1 (-)>>>
The origin for moment calculation is the CENTER OF MASS  = (-0.000039,  0.000000  0.000000)
             <<<Displacing  13/coordinate 2 (+)>>>
The origin for moment calculation is the CENTER OF MASS  = ( 0.000000,  0.000039  0.000000)
             <<<Displacing  13/coordinate 2 (-)>>>
The origin for moment calculation is the CENTER OF MASS  = ( 0.000000, -0.000039  0.000000)
             <<<Displacing  13/coordinate 3 (+)>>>
The origin for moment calculation is the CENTER OF MASS  = ( 0.000000,  0.000000  0.000039)
             <<<Displacing  13/coordinate 3 (-)>>>
The origin for moment calculation is the CENTER OF MASS  = ( 0.000000,  0.000000 -0.000039)
             <<<Displacing  14/coordinate 1 (+)>>>
The origin for moment calculation is the CENTER OF MASS  = ( 0.000039,  0.000000  0.000000)
             <<<Displacing  14/coordinate 1 (-)>>>
The origin for moment calculation is the CENTER OF MASS  = (-0.000039,  0.000000  0.000000)
             <<<Displacing  14/coordinate 2 (+)>>>
The origin for moment calculation is the CENTER OF MASS  = ( 0.000000,  0.000039  0.000000)
             <<<Displacing  14/coordinate 2 (-)>>>
The origin for moment calculation is the CENTER OF MASS  = ( 0.000000, -0.000039  0.000000)
             <<<Displacing  14/coordinate 3 (+)>>>
The origin for moment calculation is the CENTER OF MASS  = ( 0.000000,  0.000000  0.000039)
             <<<Displacing  14/coordinate 3 (-)>>>
The origin for moment calculation is the CENTER OF MASS  = ( 0.000000,  0.000000 -0.000039)
             <<<Displacing  15/coordinate 1 (+)>>>
The origin for moment calculation is the CENTER OF MASS  = ( 0.000461,  0.000000  0.000000)
             <<<Displacing  15/coordinate 1 (-)>>>
The origin for moment calculation is the CENTER OF MASS  = (-0.000461,  0.000000  0.000000)
             <<<Displacing  15/coordinate 2 (+)>>>
The origin for moment calculation is the CENTER OF MASS  = ( 0.000000,  0.000461  0.000000)
             <<<Displacing  15/coordinate 2 (-)>>>
The origin for moment calculation is the CENTER OF MASS  = ( 0.000000, -0.000461  0.000000)
             <<<Displacing  15/coordinate 3 (+)>>>
The origin for moment calculation is the CENTER OF MASS  = ( 0.000000,  0.000000  0.000461)
             <<<Displacing  15/coordinate 3 (-)>>>
The origin for moment calculation is the CENTER OF MASS  = ( 0.000000,  0.000000 -0.000461)
             <<<Displacing  16/coordinate 1 (+)>>>
The origin for moment calculation is the CENTER OF MASS  = ( 0.000461,  0.000000  0.000000)
             <<<Displacing  16/coordinate 1 (-)>>>
The origin for moment calculation is the CENTER OF MASS  = (-0.000461,  0.000000  0.000000)
             <<<Displacing  16/coordinate 2 (+)>>>
The origin for moment calculation is the CENTER OF MASS  = ( 0.000000,  0.000461  0.000000)
             <<<Displacing  16/coordinate 2 (-)>>>
The origin for moment calculation is the CENTER OF MASS  = ( 0.000000, -0.000461  0.000000)
             <<<Displacing  16/coordinate 3 (+)>>>
The origin for moment calculation is the CENTER OF MASS  = ( 0.000000,  0.000000  0.000461)
             <<<Displacing  16/coordinate 3 (-)>>>
The origin for moment calculation is the CENTER OF MASS  = ( 0.000000,  0.000000 -0.000461)
             <<<Displacing  17/coordinate 1 (+)>>>
The origin for moment calculation is the CENTER OF MASS  = ( 0.000039,  0.000000  0.000000)
             <<<Displacing  17/coordinate 1 (-)>>>
The origin for moment calculation is the CENTER OF MASS  = (-0.000039,  0.000000  0.000000)
             <<<Displacing  17/coordinate 2 (+)>>>
The origin for moment calculation is the CENTER OF MASS  = ( 0.000000,  0.000039  0.000000)
             <<<Displacing  17/coordinate 2 (-)>>>
The origin for moment calculation is the CENTER OF MASS  = ( 0.000000, -0.000039  0.000000)
             <<<Displacing  17/coordinate 3 (+)>>>
The origin for moment calculation is the CENTER OF MASS  = ( 0.000000,  0.000000  0.000039)
             <<<Displacing  17/coordinate 3 (-)>>>
The origin for moment calculation is the CENTER OF MASS  = ( 0.000000,  0.000000 -0.000039)
             <<<Displacing  18/coordinate 1 (+)>>>
The origin for moment calculation is the CENTER OF MASS  = ( 0.000039,  0.000000  0.000000)
             <<<Displacing  18/coordinate 1 (-)>>>
The origin for moment calculation is the CENTER OF MASS  = (-0.000039,  0.000000  0.000000)
             <<<Displacing  18/coordinate 2 (+)>>>
The origin for moment calculation is the CENTER OF MASS  = ( 0.000000,  0.000039  0.000000)
             <<<Displacing  18/coordinate 2 (-)>>>
The origin for moment calculation is the CENTER OF MASS  = ( 0.000000, -0.000039  0.000000)
             <<<Displacing  18/coordinate 3 (+)>>>
The origin for moment calculation is the CENTER OF MASS  = ( 0.000000,  0.000000  0.000039)
             <<<Displacing  18/coordinate 3 (-)>>>
The origin for moment calculation is the CENTER OF MASS  = ( 0.000000,  0.000000 -0.000039)
             <<<Displacing  19/coordinate 1 (+)>>>
The origin for moment calculation is the CENTER OF MASS  = ( 0.000039,  0.000000  0.000000)
             <<<Displacing  19/coordinate 1 (-)>>>
The origin for moment calculation is the CENTER OF MASS  = (-0.000039,  0.000000  0.000000)
             <<<Displacing  19/coordinate 2 (+)>>>
The origin for moment calculation is the CENTER OF MASS  = ( 0.000000,  0.000039  0.000000)
             <<<Displacing  19/coordinate 2 (-)>>>
The origin for moment calculation is the CENTER OF MASS  = ( 0.000000, -0.000039  0.000000)
             <<<Displacing  19/coordinate 3 (+)>>>
The origin for moment calculation is the CENTER OF MASS  = ( 0.000000,  0.000000  0.000039)
             <<<Displacing  19/coordinate 3 (-)>>>
The origin for moment calculation is the CENTER OF MASS  = ( 0.000000,  0.000000 -0.000039)
             <<<Displacing  20/coordinate 1 (+)>>>
The origin for moment calculation is the CENTER OF MASS  = ( 0.000039,  0.000000  0.000000)
             <<<Displacing  20/coordinate 1 (-)>>>
The origin for moment calculation is the CENTER OF MASS  = (-0.000039,  0.000000  0.000000)
             <<<Displacing  20/coordinate 2 (+)>>>
The origin for moment calculation is the CENTER OF MASS  = ( 0.000000,  0.000039  0.000000)
             <<<Displacing  20/coordinate 2 (-)>>>
The origin for moment calculation is the CENTER OF MASS  = ( 0.000000, -0.000039  0.000000)
             <<<Displacing  20/coordinate 3 (+)>>>
The origin for moment calculation is the CENTER OF MASS  = ( 0.000000,  0.000000  0.000039)
             <<<Displacing  20/coordinate 3 (-)>>>
The origin for moment calculation is the CENTER OF MASS  = ( 0.000000,  0.000000 -0.000039)

-----------------------
VIBRATIONAL FREQUENCIES
-----------------------

   0:         0.00 cm**-1
   1:         0.00 cm**-1
   2:         0.00 cm**-1
   3:         0.00 cm**-1
   4:         0.00 cm**-1
   5:         0.00 cm**-1
   6:        76.62 cm**-1
   7:       120.35 cm**-1
   8:       177.24 cm**-1
   9:       185.78 cm**-1
  10:       261.46 cm**-1
  11:       316.61 cm**-1
  12:       408.38 cm**-1
  13:       433.81 cm**-1
  14:       478.15 cm**-1
  15:       483.85 cm**-1
  16:       576.19 cm**-1
  17:       666.20 cm**-1
  18:       673.09 cm**-1
  19:       717.76 cm**-1
  20:       734.21 cm**-1
  21:       813.39 cm**-1
  22:       861.30 cm**-1
  23:       899.22 cm**-1
  24:       900.64 cm**-1
  25:       983.89 cm**-1
  26:       983.97 cm**-1
  27:      1020.66 cm**-1
  28:      1038.99 cm**-1
  29:      1072.41 cm**-1
  30:      1101.58 cm**-1
  31:      1108.73 cm**-1
  32:      1110.17 cm**-1
  33:      1110.33 cm**-1
  34:      1202.87 cm**-1
  35:      1260.65 cm**-1
  36:      1284.97 cm**-1
  37:      1295.69 cm**-1
  38:      1350.84 cm**-1
  39:      1397.10 cm**-1
  40:      1421.49 cm**-1
  41:      1427.86 cm**-1
  42:      1513.54 cm**-1
  43:      1563.46 cm**-1
  44:      1573.11 cm**-1
  45:      1639.43 cm**-1
  46:      1690.06 cm**-1
  47:      1738.18 cm**-1
  48:      1812.64 cm**-1
  49:      1813.46 cm**-1
  50:      3392.75 cm**-1
  51:      3393.57 cm**-1
  52:      3430.06 cm**-1
  53:      3430.18 cm**-1
  54:      3447.20 cm**-1
  55:      3450.03 cm**-1
  56:      3470.02 cm**-1
  57:      3472.49 cm**-1
  58:      3544.79 cm**-1
  59:      3544.80 cm**-1


------------
NORMAL MODES
------------

These modes are the cartesian displacements weighted by the diagonal matrix
M(i,i)=1/sqrt(m[i]) where m[i] is the mass of the displaced atom
Thus, these vectors are normalized but *not* orthogonal

                  0          1          2          3          4          5    
      0       0.000000   0.000000   0.000000   0.000000   0.000000   0.000000
      1       0.000000   0.000000   0.000000   0.000000   0.000000   0.000000
      2       0.000000   0.000000   0.000000   0.000000   0.000000   0.000000
      3       0.000000   0.000000   0.000000   0.000000   0.000000   0.000000
      4       0.000000   0.000000   0.000000   0.000000   0.000000   0.000000
      5       0.000000   0.000000   0.000000   0.000000   0.000000   0.000000
      6       0.000000   0.000000   0.000000   0.000000   0.000000   0.000000
      7       0.000000   0.000000   0.000000   0.000000   0.000000   0.000000
      8       0.000000   0.000000   0.000000   0.000000   0.000000   0.000000
      9       0.000000   0.000000   0.000000   0.000000   0.000000   0.000000
     10       0.000000   0.000000   0.000000   0.000000   0.000000   0.000000
     11       0.000000   0.000000   0.000000   0.000000   0.000000   0.000000
     12       0.000000   0.000000   0.000000   0.000000   0.000000   0.000000
     13       0.000000   0.000000   0.000000   0.000000   0.000000   0.000000
     14       0.000000   0.000000   0.000000   0.000000   0.000000   0.000000
     15       0.000000   0.000000   0.000000   0.000000   0.000000   0.000000
     16       0.000000   0.000000   0.000000   0.000000   0.000000   0.000000
     17       0.000000   0.000000   0.000000   0.000000   0.000000   0.000000
     18       0.000000   0.000000   0.000000   0.000000   0.000000   0.000000
     19       0.000000   0.000000   0.000000   0.000000   0.000000   0.000000
     20       0.000000   0.000000   0.000000   0.000000   0.000000   0.000000
     21       0.000000   0.000000   0.000000   0.000000   0.000000   0.000000
     22       0.000000   0.000000   0.000000   0.000000   0.000000   0.000000
     23       0.000000   0.000000   0.000000   0.000000   0.000000   0.000000
     24       0.000000   0.000000   0.000000   0.000000   0.000000   0.000000
     25       0.000000   0.000000   0.000000   0.000000   0.000000   0.000000
     26       0.000000   0.000000   0.000000   0.000000   0.000000   0.000000
     27       0.000000   0.000000   0.000000   0.000000   0.000000   0.000000
     28       0.000000   0.000000   0.000000   0.000000   0.000000   0.000000
     29       0.000000   0.000000   0.000000   0.000000   0.000000   0.000000
     30       0.000000   0.000000   0.000000   0.000000   0.000000   0.000000
     31       0.000000   0.000000   0.000000   0.000000   0.000000   0.000000
     32       0.000000   0.000000   0.000000   0.000000   0.000000   0.000000
     33       0.000000   0.000000   0.000000   0.000000   0.000000   0.000000
     34       0.000000   0.000000   0.000000   0.000000   0.000000   0.000000
     35       0.000000   0.000000   0.000000   0.000000   0.000000   0.000000
     36       0.000000   0.000000   0.000000   0.000000   0.000000   0.000000
     37       0.000000   0.000000   0.000000   0.000000   0.000000   0.000000
     38       0.000000   0.000000   0.000000   0.000000   0.000000   0.000000
     39       0.000000   0.000000   0.000000   0.000000   0.000000   0.000000
     40       0.000000   0.000000   0.000000   0.000000   0.000000   0.000000
     41       0.000000   0.000000   0.000000   0.000000   0.000000   0.000000
     42       0.000000   0.000000   0.000000   0.000000   0.000000   0.000000
     43       0.000000   0.000000   0.000000   0.000000   0.000000   0.000000
     44       0.000000   0.000000   0.000000   0.000000   0.000000   0.000000
     45       0.000000   0.000000   0.000000   0.000000   0.000000   0.000000
     46       0.000000   0.000000   0.000000   0.000000   0.000000   0.000000
     47       0.000000   0.000000   0.000000   0.000000   0.000000   0.000000
     48       0.000000   0.000000   0.000000   0.000000   0.000000   0.000000
     49       0.000000   0.000000   0.000000   0.000000   0.000000   0.000000
     50       0.000000   0.000000   0.000000   0.000000   0.000000   0.000000
     51       0.000000   0.000000   0.000000   0.000000   0.000000   0.000000
     52       0.000000   0.000000   0.000000   0.000000   0.000000   0.000000
     53       0.000000   0.000000   0.000000   0.000000   0.000000   0.000000
     54       0.000000   0.000000   0.000000   0.000000   0.000000   0.000000
     55       0.000000   0.000000   0.000000   0.000000   0.000000   0.000000
     56       0.000000   0.000000   0.000000   0.000000   0.000000   0.000000
     57       0.000000   0.000000   0.000000   0.000000   0.000000   0.000000
     58       0.000000   0.000000   0.000000   0.000000   0.000000   0.000000
     59       0.000000   0.000000   0.000000   0.000000   0.000000   0.000000
                  6          7          8          9         10         11    
      0       0.000000  -0.000000   0.020318  -0.000000   0.042462  -0.000000
      1      -0.000001   0.000000  -0.103766   0.000000   0.119504  -0.000000
      2       0.092756  -0.100031  -0.000001  -0.014414  -0.000000  -0.177082
      3       0.000000  -0.000000   0.020318   0.000000  -0.042462   0.000000
      4      -0.000000   0.000000  -0.103766  -0.000000  -0.119504   0.000000
      5       0.092755   0.100032   0.000000  -0.014416   0.000001   0.177082
      6      -0.000000  -0.000000   0.026124   0.000000   0.097906  -0.000000
      7      -0.000001   0.000000  -0.113041   0.000000   0.063672  -0.000000
      8       0.127503   0.036173  -0.000001  -0.066564  -0.000000  -0.122517
      9       0.000000  -0.000000   0.026124  -0.000000  -0.097906   0.000000
     10      -0.000000   0.000000  -0.113041   0.000000  -0.063672   0.000000
     11       0.127503  -0.036173  -0.000001  -0.066564   0.000001   0.122517
     12      -0.000000  -0.000000   0.012947   0.000000   0.066766  -0.000000
     13      -0.000000   0.000001  -0.111328  -0.000000  -0.079591   0.000000
     14       0.123385   0.141918   0.000000  -0.080320   0.000001   0.091627
     15       0.000000  -0.000000   0.012947  -0.000000  -0.066766   0.000000
     16      -0.000001   0.000000  -0.111327   0.000000   0.079591  -0.000000
     17       0.123386  -0.141919  -0.000001  -0.080317   0.000000  -0.091627
     18      -0.000001  -0.000000   0.027009   0.000001   0.183398  -0.000000
     19      -0.000001   0.000001  -0.113810   0.000000   0.095390  -0.000000
     20       0.130698   0.073835  -0.000000  -0.049836  -0.000001  -0.186588
     21       0.000001  -0.000000   0.027008  -0.000001  -0.183398   0.000001
     22      -0.000000   0.000000  -0.113811   0.000000  -0.095391   0.000000
     23       0.130699  -0.073835  -0.000001  -0.049835   0.000000   0.186589
     24      -0.000000  -0.000000   0.006884  -0.000000   0.146221  -0.000001
     25      -0.000000   0.000001  -0.109328  -0.000000  -0.147191   0.000001
     26       0.128941   0.263020   0.000001  -0.070577   0.000001   0.113304
     27       0.000000   0.000000   0.006884  -0.000000  -0.146220   0.000000
     28      -0.000001   0.000000  -0.109327   0.000001   0.147190  -0.000000
     29       0.128944  -0.263020  -0.000001  -0.070573  -0.000000  -0.113304
     30       0.000000  -0.000000   0.052515   0.000000  -0.041888   0.000000
     31       0.000000  -0.000000   0.055308  -0.000000  -0.055455   0.000000
     32      -0.017708   0.140417   0.000001   0.182257  -0.000001  -0.066547
     33       0.000000  -0.000000   0.052515  -0.000000   0.041888  -0.000000
     34      -0.000000  -0.000000   0.055307   0.000000   0.055455  -0.000000
     35      -0.017707  -0.140414  -0.000000   0.182259  -0.000000   0.066548
     36       0.000001  -0.000001   0.215474   0.000000   0.084708  -0.000000
     37       0.000000  -0.000000   0.094422  -0.000000  -0.024204  -0.000000
     38       0.103597   0.378389   0.000003   0.517661  -0.000003  -0.410298
     39       0.000001  -0.000001   0.215473  -0.000001  -0.084709   0.000000
     40       0.000000  -0.000000   0.094421  -0.000000   0.024205  -0.000000
     41       0.103601  -0.378378  -0.000001   0.517664  -0.000000   0.410299
     42       0.000000   0.000001  -0.103866   0.000000  -0.200947   0.000001
     43       0.000001  -0.000001   0.231333  -0.000000   0.117530  -0.000000
     44      -0.288281  -0.153476   0.000000  -0.032804  -0.000001  -0.022340
     45      -0.000001   0.000000  -0.103866   0.000000   0.200947  -0.000001
     46       0.000001  -0.000001   0.231333  -0.000001  -0.117530   0.000000
     47      -0.288283   0.153473   0.000002  -0.032806  -0.000000   0.022340
     48       0.000000   0.000002  -0.298631   0.000000  -0.414473   0.000001
     49       0.000001  -0.000001   0.197229  -0.000000   0.079242  -0.000000
     50      -0.440943  -0.437120  -0.000002  -0.398590   0.000001   0.334883
     51      -0.000003   0.000001  -0.298633   0.000002   0.414473  -0.000001
     52       0.000001  -0.000001   0.197228  -0.000000  -0.079242   0.000000
     53      -0.440948   0.437109   0.000002  -0.398595  -0.000001  -0.334885
     54       0.000000   0.000000  -0.046516   0.000000  -0.139007   0.000001
     55       0.000001  -0.000002   0.425919  -0.000000   0.330953  -0.000001
     56      -0.370972  -0.128060   0.000001   0.142484  -0.000003  -0.334907
     57      -0.000000   0.000000  -0.046517   0.000000   0.139007  -0.000001
     58       0.000003  -0.000002   0.425920  -0.000002  -0.330953   0.000001
     59      -0.370974   0.128061   0.000002   0.142481   0.000001   0.334908
                 12         13         14         15         16         17    
      0      -0.133939   0.000001  -0.000001   0.059009   0.115654   0.000000
      1       0.136849  -0.000000  -0.000002   0.042468   0.064904  -0.000001
      2       0.000001  -0.021048   0.201250   0.000006  -0.000000  -0.045681
      3       0.133939  -0.000001  -0.000002   0.059010  -0.115654  -0.000000
      4      -0.136849   0.000000  -0.000000   0.042468  -0.064904   0.000001
      5       0.000001  -0.021047   0.201250   0.000007   0.000000   0.045681
      6       0.052849  -0.000000  -0.000002   0.084258   0.063887   0.000002
      7       0.006618   0.000000  -0.000002   0.076260   0.132856  -0.000002
      8      -0.000001  -0.210368  -0.093296  -0.000003  -0.000000   0.117093
      9      -0.052849   0.000000  -0.000002   0.084258  -0.063886  -0.000002
     10      -0.006618  -0.000000  -0.000002   0.076260  -0.132856   0.000002
     11      -0.000002  -0.210368  -0.093296  -0.000003  -0.000000  -0.117093
     12       0.064928  -0.000000  -0.000002   0.101005   0.021821   0.000003
     13      -0.154582   0.000000  -0.000001   0.078010  -0.024245   0.000001
     14       0.000001   0.218048  -0.056901  -0.000002  -0.000000  -0.113255
     15      -0.064927   0.000000  -0.000002   0.101005  -0.021820  -0.000002
     16       0.154582  -0.000000  -0.000002   0.078010   0.024245  -0.000001
     17       0.000001   0.218048  -0.056901  -0.000002  -0.000001   0.113255
     18       0.252210  -0.000001  -0.000003   0.095492   0.087302   0.000001
     19       0.084604  -0.000000  -0.000002   0.083732   0.142718  -0.000002
     20      -0.000005  -0.400165  -0.342399  -0.000011   0.000000   0.159748
     21      -0.252210   0.000001  -0.000002   0.095492  -0.087301  -0.000001
     22      -0.084604   0.000000  -0.000002   0.083732  -0.142717   0.000002
     23      -0.000005  -0.400166  -0.342399  -0.000011   0.000000  -0.159748
     24       0.074563  -0.000000  -0.000002   0.099909   0.184343   0.000002
     25      -0.160389   0.000000  -0.000001   0.079764  -0.157362   0.000002
     26       0.000001   0.491767  -0.283972  -0.000009  -0.000000  -0.197740
     27      -0.074562  -0.000000  -0.000002   0.099909  -0.184342  -0.000002
     28       0.160389  -0.000000  -0.000003   0.079763   0.157362  -0.000002
     29       0.000001   0.491766  -0.283972  -0.000008   0.000001   0.197739
     30       0.241917  -0.000001  -0.000000  -0.023823  -0.095221  -0.000000
     31       0.006847   0.000000   0.000004  -0.175123   0.170354   0.000001
     32       0.000000   0.004897   0.056026   0.000002   0.000000   0.134571
     33      -0.241918   0.000001   0.000001  -0.023823   0.095221   0.000000
     34      -0.006847  -0.000000   0.000004  -0.175123  -0.170354  -0.000000
     35      -0.000000   0.004896   0.056026   0.000002   0.000000  -0.134571
     36       0.354766  -0.000001  -0.000000  -0.053269  -0.050202  -0.000000
     37       0.029483   0.000000   0.000004  -0.178687   0.180875   0.000001
     38      -0.000002   0.027200  -0.213512  -0.000006  -0.000001  -0.191657
     39      -0.354768   0.000001   0.000002  -0.053269   0.050201  -0.000000
     40      -0.029483   0.000000   0.000004  -0.178686  -0.180875  -0.000000
     41      -0.000002   0.027200  -0.213511  -0.000007   0.000000   0.191657
     42       0.197742  -0.000000   0.000004  -0.182338   0.056085   0.000000
     43       0.087459  -0.000000   0.000000  -0.034442   0.022991   0.000000
     44      -0.000000  -0.000965  -0.026390  -0.000001   0.000000  -0.023117
     45      -0.197742   0.000001   0.000005  -0.182337  -0.056086  -0.000000
     46      -0.087460   0.000000   0.000001  -0.034442  -0.022991  -0.000000
     47      -0.000000  -0.000964  -0.026390  -0.000001   0.000000   0.023117
     48       0.144334   0.000000   0.000011  -0.497231   0.427289   0.000001
     49       0.080296  -0.000000   0.000002  -0.091245   0.087654   0.000000
     50       0.000002  -0.053212   0.249750   0.000008   0.000001   0.304743
     51      -0.144333   0.000001   0.000012  -0.497229  -0.427290  -0.000001
     52      -0.080296   0.000000   0.000002  -0.091245  -0.087654  -0.000000
     53       0.000001  -0.053213   0.249750   0.000008   0.000001  -0.304744
     54       0.219448  -0.000001   0.000002  -0.099040  -0.044051  -0.000000
     55       0.151145  -0.000001  -0.000006   0.259289  -0.321999  -0.000000
     56      -0.000002   0.046842  -0.371325  -0.000012  -0.000001  -0.508439
     57      -0.219448   0.000001   0.000003  -0.099040   0.044051  -0.000000
     58      -0.151146   0.000001  -0.000006   0.259288   0.321999   0.000000
     59      -0.000002   0.046843  -0.371324  -0.000013  -0.000001   0.508440
                 18         19         20         21         22         23    
      0       0.001280   0.000000  -0.017194   0.000000  -0.077816   0.000000
      1      -0.105639  -0.000000   0.002565   0.000000   0.015413   0.000000
      2       0.000001   0.081384  -0.000001   0.251439  -0.000001  -0.002577
      3      -0.001280  -0.000000  -0.017194   0.000000   0.077816  -0.000000
      4       0.105639   0.000000   0.002565   0.000000  -0.015413  -0.000000
      5      -0.000002   0.081384  -0.000002  -0.251439  -0.000000   0.002569
      6       0.260312   0.000001   0.135123  -0.000000   0.004956  -0.000000
      7      -0.232187  -0.000000  -0.066899  -0.000000  -0.245247   0.000000
      8      -0.000003   0.015337  -0.000000  -0.103353   0.000000  -0.070458
      9      -0.260312   0.000001   0.135124  -0.000000  -0.004956   0.000000
     10       0.232187  -0.000000  -0.066899   0.000000   0.245247  -0.000000
     11       0.000003   0.015338   0.000000   0.103353   0.000001   0.070463
     12       0.321807   0.000001   0.132120  -0.000000  -0.070840   0.000000
     13       0.163374  -0.000000  -0.023930  -0.000000  -0.248207   0.000000
     14       0.000003   0.019899   0.000000   0.100404   0.000000  -0.079365
     15      -0.321807   0.000001   0.132121  -0.000000   0.070840   0.000000
     16      -0.163374  -0.000000  -0.023930   0.000000   0.248207  -0.000000
     17      -0.000003   0.019899  -0.000000  -0.100404   0.000000   0.079370
     18       0.150405   0.000002   0.224234   0.000000   0.206967  -0.000001
     19      -0.274738  -0.000000  -0.033040   0.000000  -0.185217   0.000000
     20      -0.000003  -0.301302   0.000003  -0.273261   0.000001   0.482138
     21      -0.150401   0.000001   0.224234  -0.000000  -0.206966  -0.000001
     22       0.274739  -0.000000  -0.033040   0.000000   0.185217  -0.000000
     23       0.000003  -0.301302   0.000005   0.273261  -0.000003  -0.482168
     24       0.250702   0.000001   0.200010  -0.000000  -0.213669   0.000000
     25       0.221553  -0.000001  -0.083854  -0.000000  -0.152390   0.000000
     26       0.000006  -0.297563   0.000004   0.271631  -0.000001   0.505668
     27      -0.250702   0.000001   0.200011  -0.000000   0.213668   0.000000
     28      -0.221554  -0.000000  -0.083855   0.000000   0.152390  -0.000000
     29      -0.000005  -0.297562   0.000003  -0.271631  -0.000002  -0.505698
     30      -0.011434  -0.000001  -0.183715   0.000000  -0.109071   0.000000
     31       0.055044   0.000001   0.126001  -0.000000   0.075488  -0.000000
     32      -0.000003  -0.114894   0.000002   0.123586   0.000000  -0.000450
     33       0.011433  -0.000001  -0.183715   0.000000   0.109071  -0.000000
     34      -0.055044   0.000000   0.126002  -0.000000  -0.075488  -0.000000
     35       0.000004  -0.114894   0.000002  -0.123586   0.000000   0.000454
     36      -0.001538  -0.000002  -0.186404  -0.000000  -0.113777  -0.000000
     37       0.057493   0.000001   0.133151  -0.000000   0.082068  -0.000000
     38       0.000005   0.188992  -0.000003  -0.167318  -0.000001  -0.001633
     39       0.001538  -0.000001  -0.186405   0.000000   0.113778  -0.000000
     40      -0.057493   0.000001   0.133152  -0.000000  -0.082068  -0.000000
     41      -0.000005   0.188991  -0.000002   0.167318  -0.000001   0.001631
     42       0.021985  -0.000001  -0.091761   0.000000  -0.076467   0.000000
     43       0.040436  -0.000000  -0.011978   0.000000  -0.002398   0.000000
     44       0.000000   0.017691  -0.000000  -0.012532   0.000000   0.001915
     45      -0.021985  -0.000001  -0.091760  -0.000000   0.076467  -0.000000
     46      -0.040437  -0.000000  -0.011978   0.000000   0.002398   0.000000
     47      -0.000001   0.017691  -0.000000   0.012532   0.000000  -0.001915
     48       0.117516   0.000002   0.265697  -0.000000   0.211969  -0.000000
     49       0.056646   0.000000   0.046727  -0.000000   0.045354  -0.000000
     50      -0.000008  -0.263070   0.000003   0.221411  -0.000001   0.011024
     51      -0.117516   0.000001   0.265698  -0.000000  -0.211969   0.000000
     52      -0.056646   0.000000   0.046727   0.000000  -0.045354   0.000000
     53       0.000008  -0.263070   0.000004  -0.221412   0.000001  -0.011019
     54       0.000236  -0.000002  -0.200577   0.000000  -0.172496   0.000000
     55      -0.035634  -0.000003  -0.369934   0.000001  -0.317841   0.000000
[...]
     24      -0.035568  -0.036525  -0.009346  -0.006683   0.001814  -0.006171
     25       0.016032   0.053414  -0.011937  -0.008619   0.002536  -0.007434
     26       0.000000  -0.000000   0.000000   0.000000  -0.000000  -0.000000
     27       0.035562  -0.036531  -0.009346   0.006684  -0.001828  -0.006168
     28      -0.016023   0.053416  -0.011937   0.008620  -0.002554  -0.007430
     29      -0.000000   0.000000   0.000000   0.000000   0.000000  -0.000000
     30      -0.217177   0.226000   0.008151   0.008083   0.010274  -0.010265
     31      -0.144894   0.143311  -0.010824  -0.010820  -0.060489   0.060604
     32       0.000000  -0.000000  -0.000000  -0.000000  -0.000000   0.000000
     33       0.217214   0.225965   0.008152  -0.008082  -0.010299  -0.010240
     34       0.144917   0.143287  -0.010825   0.010819   0.060635   0.060458
     35      -0.000000   0.000000  -0.000000   0.000000  -0.000000  -0.000000
     36       0.291691  -0.282594  -0.040511  -0.040399  -0.157226   0.157477
     37      -0.057653   0.055840   0.175147   0.174176   0.661070  -0.662440
     38      -0.000000   0.000000  -0.000000  -0.000000   0.000000  -0.000000
     39      -0.291737  -0.282546  -0.040515   0.040396   0.157605   0.157097
     40       0.057663   0.055831   0.175165  -0.174162  -0.662664  -0.660843
     41       0.000000  -0.000000   0.000000  -0.000000  -0.000000   0.000000
     42       0.182959  -0.185801  -0.036871  -0.036905   0.010356  -0.010440
     43       0.154153  -0.155222  -0.030911  -0.030850   0.014410  -0.014463
     44       0.000000  -0.000000   0.000000   0.000000  -0.000000   0.000000
     45      -0.182990  -0.185771  -0.036874   0.036902  -0.010381  -0.010415
     46      -0.154179  -0.155196  -0.030914   0.030847  -0.014445  -0.014428
     47      -0.000000   0.000000   0.000000  -0.000000   0.000000  -0.000000
     48      -0.376183   0.383393  -0.085245  -0.085236   0.029398  -0.029512
     49       0.095632  -0.095732   0.465915   0.466198  -0.147761   0.148478
     50      -0.000000   0.000000   0.000000   0.000000  -0.000000  -0.000000
     51       0.376247   0.383331  -0.085252   0.085228  -0.029470  -0.029441
     52      -0.095648  -0.095716   0.465957  -0.466156   0.148121   0.148122
     53       0.000000  -0.000000  -0.000000  -0.000000  -0.000000   0.000000
     54       0.076094  -0.079137   0.468615   0.468925  -0.095387   0.096069
     55      -0.339882   0.339844  -0.144670  -0.144785   0.029522  -0.029774
     56      -0.000000   0.000000  -0.000000  -0.000000   0.000000  -0.000000
     57      -0.076107  -0.079124   0.468656  -0.468883   0.095620   0.095840
     58       0.339939   0.339788  -0.144683   0.144772  -0.029594  -0.029703
     59      -0.000000  -0.000000  -0.000000   0.000000  -0.000000  -0.000000
                 54         55         56         57         58         59    
      0       0.002155   0.001637   0.000043  -0.002175  -0.000334  -0.000340
      1       0.001148   0.002727   0.003904   0.001478  -0.000154  -0.000165
      2      -0.000000   0.000000   0.000000  -0.000000   0.000000  -0.000000
      3       0.002155  -0.001637   0.000043   0.002175  -0.000335   0.000339
      4       0.001148  -0.002728   0.003905  -0.001477  -0.000155   0.000164
      5      -0.000000  -0.000000  -0.000000   0.000000  -0.000000   0.000000
      6       0.018697   0.019277   0.012364  -0.011670   0.000043  -0.000079
      7      -0.053399  -0.053837  -0.024466   0.023885   0.000006   0.000104
      8       0.000000  -0.000000  -0.000000   0.000000  -0.000000   0.000000
      9       0.018691  -0.019281   0.012363   0.011670   0.000042   0.000079
     10      -0.053384   0.053851  -0.024466  -0.023886   0.000007  -0.000104
     11      -0.000000   0.000000  -0.000000  -0.000000   0.000000   0.000000
     12       0.013226   0.012753  -0.037459   0.037796  -0.000259   0.000380
     13       0.020957   0.019628  -0.043954   0.044665  -0.000335   0.000452
     14       0.000000  -0.000000   0.000000  -0.000000  -0.000000   0.000000
     15       0.013223  -0.012757  -0.037457  -0.037798  -0.000257  -0.000381
     16       0.020951  -0.019634  -0.043952  -0.044666  -0.000333  -0.000454
     17       0.000000   0.000000   0.000000  -0.000000   0.000000   0.000000
     18      -0.223994  -0.226203  -0.103173   0.097800  -0.000105   0.000302
     19       0.600324   0.605489   0.271162  -0.258944   0.000524  -0.000745
     20      -0.000000   0.000000   0.000000   0.000000   0.000000   0.000000
     21      -0.223931   0.226263  -0.103173  -0.097806  -0.000103  -0.000303
     22       0.600156  -0.605649   0.271162   0.258958   0.000520   0.000747
     23       0.000000  -0.000000   0.000000   0.000000   0.000000  -0.000000
     24      -0.182505  -0.175230   0.404437  -0.407869   0.003437  -0.004595
     25      -0.227692  -0.217323   0.497993  -0.502676   0.005347  -0.006704
     26       0.000000  -0.000000  -0.000000   0.000000   0.000000  -0.000000
     27      -0.182459   0.175288   0.404417   0.407885   0.003420   0.004608
     28      -0.227635   0.217395   0.497968   0.502695   0.005321   0.006725
     29      -0.000000   0.000000  -0.000000  -0.000000  -0.000000   0.000000
     30       0.000282   0.000290  -0.000075  -0.000067   0.000725  -0.000722
     31      -0.001439  -0.001316  -0.000419   0.000749  -0.003338   0.003346
     32       0.000000   0.000000   0.000000  -0.000000   0.000000  -0.000000
     33       0.000282  -0.000290  -0.000075   0.000067   0.000722   0.000724
     34      -0.001439   0.001317  -0.000419  -0.000749  -0.003326  -0.003358
     35       0.000000  -0.000000  -0.000000  -0.000000   0.000000   0.000000
     36      -0.004846  -0.003306   0.000392   0.000126  -0.007121   0.007135
     37       0.016906   0.015200   0.001499  -0.005696   0.038344  -0.038379
     38      -0.000000  -0.000000  -0.000000  -0.000000   0.000000  -0.000000
     39      -0.004846   0.003309   0.000391  -0.000126  -0.007096  -0.007161
     40       0.016905  -0.015210   0.001502   0.005695   0.038207   0.038515
     41      -0.000000  -0.000000   0.000000  -0.000000  -0.000000  -0.000000
     42       0.001016   0.000747  -0.001141   0.001066   0.047119  -0.046941
     43       0.000666   0.000219   0.000167  -0.000390  -0.052971   0.052782
     44      -0.000000  -0.000000   0.000000  -0.000000   0.000000  -0.000000
     45       0.001016  -0.000748  -0.001141  -0.001066   0.046951   0.047108
     46       0.000666  -0.000219   0.000167   0.000390  -0.052783  -0.052971
     47       0.000000   0.000000   0.000000   0.000000   0.000000  -0.000000
     48       0.002117   0.000733  -0.000541  -0.000026  -0.084541   0.084246
     49      -0.011008  -0.004926   0.004625  -0.001406   0.492589  -0.490903
     50       0.000000  -0.000000  -0.000000   0.000000   0.000000  -0.000000
     51       0.002117  -0.000733  -0.000541   0.000026  -0.084241  -0.084546
     52      -0.011008   0.004930   0.004625   0.001406   0.490839   0.492652
     53      -0.000000  -0.000000  -0.000000   0.000000  -0.000000  -0.000000
     54      -0.012297  -0.006465   0.011880  -0.011762  -0.475198   0.473413
     55       0.003574   0.002048  -0.003527   0.003239   0.139912  -0.139378
     56       0.000000   0.000000   0.000000  -0.000000  -0.000000   0.000000
     57      -0.012297   0.006471   0.011881   0.011761  -0.473511  -0.475101
     58       0.003574  -0.002049  -0.003528  -0.003238   0.139415   0.139875
     59      -0.000000  -0.000000  -0.000000  -0.000000   0.000000   0.000000


-----------
IR SPECTRUM
-----------

 Mode    freq (cm**-1)   T**2         TX         TY         TZ
-------------------------------------------------------------------
   6:        76.62    0.077437  (  0.000002   0.000001  -0.278275)
   7:       120.35    0.000000  ( -0.000001  -0.000004   0.000004)
   8:       177.24    0.438769  (  0.635101   0.188191   0.000003)
   9:       185.78    0.243537  ( -0.000002  -0.000001   0.493495)
  10:       261.46    0.000000  (  0.000000  -0.000003  -0.000003)
  11:       316.61    0.000000  ( -0.000003   0.000000   0.000002)
  12:       408.38    0.000000  (  0.000002  -0.000004  -0.000013)
  13:       433.81    0.116039  ( -0.000001   0.000000   0.340645)
  14:       478.15    5.831388  ( -0.000035  -0.000010  -2.414827)
  15:       483.85    1.950857  (  1.315465   0.469479  -0.000064)
  16:       576.19    0.000000  ( -0.000001  -0.000005   0.000001)
  17:       666.20    0.000000  ( -0.000004  -0.000003  -0.000000)
  18:       673.09    0.000000  ( -0.000003  -0.000000   0.000001)
  19:       717.76    0.390655  ( -0.000015  -0.000003  -0.625024)
  20:       734.21    3.615514  ( -1.896874  -0.131841   0.000001)
  21:       813.39    0.000000  (  0.000001   0.000001   0.000000)
  22:       861.30    0.000000  (  0.000001   0.000002  -0.000017)
  23:       899.22    0.000000  (  0.000001  -0.000003  -0.000193)
  24:       900.64   26.794109  ( -0.000005  -0.000003   5.176303)
  25:       983.89    0.000000  (  0.000007  -0.000002  -0.000145)
  26:       983.97   37.296911  ( -0.000001   0.000002  -6.107120)
  27:      1020.66    0.000000  ( -0.000000   0.000005   0.000005)
  28:      1038.99    0.008622  (  0.000000  -0.000001  -0.092853)
  29:      1072.41    0.868287  ( -0.887643  -0.283510   0.000000)
  30:      1101.58    8.526457  (  2.858811  -0.594692  -0.000001)
  31:      1108.73    0.000000  (  0.000007   0.000001  -0.000149)
  32:      1110.17   13.341905  ( -0.000003   0.000001   3.652657)
  33:      1110.33    0.000023  ( -0.000051   0.000006  -0.004846)
  34:      1202.87    2.332518  ( -1.080754  -1.079115  -0.000006)
  35:      1260.65    0.000000  ( -0.000004  -0.000002  -0.000005)
  36:      1284.97    0.225860  ( -0.123584  -0.458898  -0.000002)
  37:      1295.69    0.000000  ( -0.000002  -0.000001  -0.000001)
  38:      1350.84    9.325845  (  3.049908  -0.154614   0.000001)
  39:      1397.10    0.000000  (  0.000027   0.000002   0.000002)
  40:      1421.49    8.198894  ( -2.742503  -0.823147  -0.000000)
  41:      1427.86    0.000000  ( -0.000192  -0.000081   0.000003)
  42:      1513.54   19.023173  ( -0.890491   4.269684   0.000000)
  43:      1563.46    0.000000  (  0.000011   0.000003   0.000001)
  44:      1573.11    0.032397  ( -0.142039   0.110551   0.000001)
  45:      1639.43   15.799885  (  3.945420   0.483261  -0.000001)
  46:      1690.06    0.000000  (  0.000000  -0.000002   0.000000)
  47:      1738.18    0.000000  ( -0.000001  -0.000000  -0.000001)
  48:      1812.64    0.000000  ( -0.000000   0.000092  -0.000000)
  49:      1813.46    1.106946  (  0.017282   1.051973   0.000001)
  50:      3392.75   92.028054  (  9.343649   2.173539  -0.000000)
  51:      3393.57    0.000000  (  0.000415   0.000105   0.000000)
  52:      3430.06    0.000009  ( -0.002873   0.000795   0.000000)
  53:      3430.18    6.128840  ( -2.387627   0.654276  -0.000000)
  54:      3447.20    0.601813  ( -0.092516   0.770230  -0.000000)
  55:      3450.03    0.000000  (  0.000014  -0.000088  -0.000000)
  56:      3470.02    4.336095  (  0.745741   1.944213  -0.000000)
  57:      3472.49    0.000000  (  0.000006   0.000036   0.000001)
  58:      3544.79    0.028562  (  0.168764  -0.008962  -0.000000)
  59:      3544.80    0.000000  (  0.000299  -0.000015   0.000000)

The first frequency considered to be a vibration is 6
The total number of vibrations considered is 54


--------------------------
THERMOCHEMISTRY AT 298.15K
--------------------------

Temperature         ... 298.15 K
Pressure            ... 1.00 atm
Total Mass          ... 130.19 AMU

Throughout the following assumptions are being made:
  (1) The electronic state is orbitally nondegenerate
  (2) There are no thermally accessible electronically excited states
  (3) Hindered rotations indicated by low frequency modes are not
      treated as such but are treated as vibrations and this may
      cause some error
  (4) All equations used are the standard statistical mechanics
      equations for an ideal gas
  (5) All vibrations are strictly harmonic

freq.      76.62  E(vib)   ...       0.49 
freq.     120.35  E(vib)   ...       0.44 
freq.     177.24  E(vib)   ...       0.37 
freq.     185.78  E(vib)   ...       0.37 
freq.     261.46  E(vib)   ...       0.30 
freq.     316.61  E(vib)   ...       0.25 
freq.     408.38  E(vib)   ...       0.19 
freq.     433.81  E(vib)   ...       0.17 
freq.     478.15  E(vib)   ...       0.15 
freq.     483.85  E(vib)   ...       0.15 
freq.     576.19  E(vib)   ...       0.11 
freq.     666.20  E(vib)   ...       0.08 
freq.     673.09  E(vib)   ...       0.08 
freq.     717.76  E(vib)   ...       0.07 
freq.     734.21  E(vib)   ...       0.06 
freq.     813.39  E(vib)   ...       0.05 
freq.     861.30  E(vib)   ...       0.04 
freq.     899.22  E(vib)   ...       0.03 
freq.     900.64  E(vib)   ...       0.03 
freq.     983.89  E(vib)   ...       0.02 
freq.     983.97  E(vib)   ...       0.02 
freq.    1020.66  E(vib)   ...       0.02 
freq.    1038.99  E(vib)   ...       0.02 
freq.    1072.41  E(vib)   ...       0.02 
freq.    1101.58  E(vib)   ...       0.02 
freq.    1108.73  E(vib)   ...       0.02 
freq.    1110.17  E(vib)   ...       0.02 
freq.    1110.33  E(vib)   ...       0.02 
freq.    1202.87  E(vib)   ...       0.01 
freq.    1260.65  E(vib)   ...       0.01 
freq.    1284.97  E(vib)   ...       0.01 
freq.    1295.69  E(vib)   ...       0.01 
freq.    1350.84  E(vib)   ...       0.01 
freq.    1397.10  E(vib)   ...       0.00 
freq.    1421.49  E(vib)   ...       0.00 
freq.    1427.86  E(vib)   ...       0.00 
freq.    1513.54  E(vib)   ...       0.00 
freq.    1563.46  E(vib)   ...       0.00 
freq.    1573.11  E(vib)   ...       0.00 
freq.    1639.43  E(vib)   ...       0.00 
freq.    1690.06  E(vib)   ...       0.00 
freq.    1738.18  E(vib)   ...       0.00 
freq.    1812.64  E(vib)   ...       0.00 
freq.    1813.46  E(vib)   ...       0.00 
freq.    3392.75  E(vib)   ...       0.00 
freq.    3393.57  E(vib)   ...       0.00 
freq.    3430.06  E(vib)   ...       0.00 
freq.    3430.18  E(vib)   ...       0.00 
freq.    3447.20  E(vib)   ...       0.00 
freq.    3450.03  E(vib)   ...       0.00 
freq.    3470.02  E(vib)   ...       0.00 
freq.    3472.49  E(vib)   ...       0.00 
freq.    3544.79  E(vib)   ...       0.00 
freq.    3544.80  E(vib)   ...       0.00 

------------
INNER ENERGY
------------

The inner energy is: U= E(el) + E(ZPE) + E(vib) + E(rot) + E(trans)
    E(el)   - is the total energy from the electronic structure calculation
              = E(kin-el) + E(nuc-el) + E(el-el) + E(nuc-nuc)
    E(ZPE)  - the the zero temperature vibrational energy from the frequency calculation
    E(vib)  - the the finite temperature correction to E(ZPE) due to population
              of excited vibrational states
    E(rot)  - is the rotational thermal energy
    E(trans)- is the translational thermal energy

Summary of contributions to the inner energy U:
Electronic energy                ...   -382.05073728 Eh
Zero point energy                ...      0.17741504 Eh     111.33 kcal/mol
Thermal vibrational correction   ...      0.00583245 Eh       3.66 kcal/mol
Thermal rotational correction    ...      0.00141627 Eh       0.89 kcal/mol
Thermal translational correction ...      0.00141627 Eh       0.89 kcal/mol
-----------------------------------------------------------------------
Total thermal energy                   -381.86465725 Eh


Summary of corrections to the electronic energy:
(perhaps to be used in another calculation)
Total thermal correction                  0.00866499 Eh       5.44 kcal/mol
Non-thermal (ZPE) correction              0.17741504 Eh     111.33 kcal/mol
-----------------------------------------------------------------------
Total correction                          0.18608003 Eh     116.77 kcal/mol


--------
ENTHALPY
--------

The enthalpy is H = U + kB*T
                kB is Boltzmann's constant
Total free energy                 ...   -381.86465725 Eh 
Thermal Enthalpy correction       ...      0.00094421 Eh       0.59 kcal/mol
-----------------------------------------------------------------------
Total Enthalpy                    ...   -381.86371304 Eh


Vibrational entropy computed according to the QRRHO of S. Grimme
Chem.Eur.J. 2012 18 9955


-------
ENTROPY
-------

The entropy contributions are T*S = T*(S(el)+S(vib)+S(rot)+S(trans)
     S(el)   - electronic entropy
     S(vib)  - vibrational entropy
     S(rot)  - rotational entropy
     S(trans)- translational entropy
The entropies will be listed as mutliplied by the temperature to get
units of energy

Electronic entropy                ...      0.00000000 Eh      0.00 kcal/mol
Vibrational entropy               ...      0.00969726 Eh      6.09 kcal/mol
Rotational entropy                ...      0.01298993 Eh      8.15 kcal/mol
Translational entropy             ...      0.01924489 Eh     12.08 kcal/mol
-----------------------------------------------------------------------
Final entropy term                ...      0.04193208 Eh     26.31 kcal/mol


CAUTION: The rotational entropy is not quite correctly treated here
         because it includes a symmetry number that is not yet correctly
         implemented in ORCA!
For a nonlinear molecule the correct rotational entropy is:
    S(rot) = R*(ln(qrot/sn)+1.5)
    R    = 8.31441 J/mol/K = 1.987191683e-3 kcal/mol/K
    qrot = 631906.5308435
    sn is the rotational symmetry number. We have assumed 3 here
       if it is different for your molecule then you should correct
       the printed rotational entropy by manually evaluating the equation
       as given above

For convenience we print out the resulting values for sn=1 - 12:
 sn= 1  qrot/sn=  631906.5308 T*S(rot)=     8.80 kcal/mol T*S(tot)=    26.96 kcal/mol
 sn= 2  qrot/sn=  315953.2654 T*S(rot)=     8.39 kcal/mol T*S(tot)=    26.55 kcal/mol
 sn= 3  qrot/sn=  210635.5103 T*S(rot)=     8.15 kcal/mol T*S(tot)=    26.31 kcal/mol
 sn= 4  qrot/sn=  157976.6327 T*S(rot)=     7.98 kcal/mol T*S(tot)=    26.14 kcal/mol
 sn= 5  qrot/sn=  126381.3062 T*S(rot)=     7.85 kcal/mol T*S(tot)=    26.01 kcal/mol
 sn= 6  qrot/sn=  105317.7551 T*S(rot)=     7.74 kcal/mol T*S(tot)=    25.90 kcal/mol
 sn= 7  qrot/sn=   90272.3615 T*S(rot)=     7.65 kcal/mol T*S(tot)=    25.81 kcal/mol
 sn= 8  qrot/sn=   78988.3164 T*S(rot)=     7.57 kcal/mol T*S(tot)=    25.73 kcal/mol
 sn= 9  qrot/sn=   70211.8368 T*S(rot)=     7.50 kcal/mol T*S(tot)=    25.66 kcal/mol
 sn=10  qrot/sn=   63190.6531 T*S(rot)=     7.44 kcal/mol T*S(tot)=    25.60 kcal/mol
 sn=11  qrot/sn=   57446.0483 T*S(rot)=     7.38 kcal/mol T*S(tot)=    25.54 kcal/mol
 sn=12  qrot/sn=   52658.8776 T*S(rot)=     7.33 kcal/mol T*S(tot)=    25.49 kcal/mol


-------------------
GIBBS FREE ENTHALPY
-------------------

The Gibbs free enthalpy is G = H - T*S

Total enthalpy                    ...   -381.86371304 Eh 
Total entropy correction          ...     -0.04193208 Eh    -26.31 kcal/mol
-----------------------------------------------------------------------
Final Gibbs free enthalpy         ...   -381.90564512 Eh

For completeness - the Gibbs free enthalpy minus the electronic energy
G-E(el)                           ...      0.14509215 Eh     91.05 kcal/mol


Total Time for Numerical Frequencies  :      2385.534 sec
Time for Reference State(s)           :        16.347 sec
Time for Displacements                :      2368.466 sec

Timings for individual modules:

Sum of individual times         ...       45.593 sec (=   0.760 min)
GTO integral calculation        ...        0.977 sec (=   0.016 min)   2.1 %
SCF iterations                  ...       18.019 sec (=   0.300 min)  39.5 %
SCF Gradient evaluation         ...       26.597 sec (=   0.443 min)  58.3 %
                             ****ORCA TERMINATED NORMALLY****
TOTAL RUN TIME: 0 days 0 hours 40 minutes 15 seconds 486 msec
