
                                 *****************
                                 * O   R   C   A *
                                 *****************

           --- An Ab Initio, DFT and Semiempirical electronic structure package ---

                  #######################################################
                  #                        -***-                        #
                  #  Department of molecular theory and spectroscopy    #
                  #              Directorship: Frank Neese              #
                  # Max Planck Institute for Chemical Energy Conversion #
                  #                  D-45470 Muelheim/Ruhr              #
                  #                       Germany                       #
                  #                                                     #
                  #                  All rights reserved                #
                  #                        -***-                        #
                  #######################################################


                         Program Version 4.0.1 -  RELEASE  -


 With contributions from (in alphabetic order):
   Daniel Aravena         : Magnetic Properties
   Michael Atanasov       : Ab Initio Ligand Field Theory
   Ute Becker             : Parallelization
   Martin Brehm           : Molecular dynamics
   Dmytro Bykov           : SCF Hessian
   Vijay G. Chilkuri      : MRCI spin determinant printing
   Dipayan Datta          : RHF DLPNO-CCSD density
   Achintya Kumar Dutta   : EOM-CC, STEOM-CC
   Dmitry Ganyushin       : Spin-Orbit,Spin-Spin,Magnetic field MRCI
   Yang Guo               : DLPNO-NEVPT2, CIM, IAO-localization
   Andreas Hansen         : Spin unrestricted coupled pair/coupled cluster methods
   Lee Huntington         : MR-EOM, pCC
   Robert Izsak           : Overlap fitted RIJCOSX, COSX-SCS-MP3, EOM
   Christian Kollmar      : KDIIS, OOCD, Brueckner-CCSD(T), CCSD density
   Simone Kossmann        : Meta GGA functionals, TD-DFT gradient, OOMP2, MP2 Hessian
   Martin Krupicka        : AUTO-CI
   Dagmar Lenk            : GEPOL surface
   Dimitrios Liakos       : Extrapolation schemes; parallel MDCI
   Dimitrios Manganas     : ROCIS; embedding schemes
   Dimitrios Pantazis     : SARC Basis sets
   Taras Petrenko         : DFT Hessian,TD-DFT gradient, ASA, ECA, R-Raman, ABS, FL, XAS/XES, NRVS
   Peter Pinski           : DLPNO-MP2
   Christoph Reimann      : Effective Core Potentials
   Marius Retegan         : Local ZFS, SOC
   Christoph Riplinger    : Optimizer, TS searches, QM/MM, DLPNO-CCSD(T), (RO)-DLPNO pert. Triples
   Tobias Risthaus        : Range-separated hybrids, TD-DFT gradient, RPA, STAB
   Michael Roemelt        : Restricted open shell CIS
   Masaaki Saitow         : Open-shell DLPNO
   Barbara Sandhoefer     : DKH picture change effects
   Kantharuban Sivalingam : CASSCF convergence, NEVPT2, FIC-MRCI
   Georgi Stoychev        : AutoAux
   Boris Wezisla          : Elementary symmetry handling
   Frank Wennmohs         : Technical directorship


 We gratefully acknowledge several colleagues who have allowed us to
 interface, adapt or use parts of their codes:
   Stefan Grimme, W. Hujo, H. Kruse,             : VdW corrections, initial TS optimization,
                  C. Bannwarth                     DFT functionals, gCP, sTDA/sTD-DF
   Ed Valeev                                     : LibInt (2-el integral package), F12 methods
   Garnet Chan, S. Sharma, J. Yang, R. Olivares  : DMRG
   Ulf Ekstrom                                   : XCFun DFT Library
   Mihaly Kallay                                 : mrcc  (arbitrary order and MRCC methods)
   Andreas Klamt, Michael Diedenhofen            : otool_cosmo (COSMO solvation model)
   Jiri Pittner, Ondrej Demel                    : Mk-CCSD
   Frank Weinhold                                : gennbo (NPA and NBO analysis)
   Christopher J. Cramer and Donald G. Truhlar   : smd solvation model


 Your calculation uses the libint2 library for the computation of 2-el integrals
 For citations please refer to: http://libint.valeyev.net

 This ORCA versions uses:
   CBLAS   interface :  Fast vector & matrix operations
   LAPACKE interface :  Fast linear algebra routines
   SCALAPACK package :  Parallel linear algebra routines


Your calculation utilizes the basis: STO-3G
   H-Ne       : W. J. Hehre, R. F. Stewart and J. A. Pople, J. Chem. Phys. 2657 (1969).
   Na-Ar      : W. J. Hehre, R. Ditchfield, R. F. Stewart and J. A. Pople, J. Chem. Phys. 2769 (1970).
   K,Ca,Ga-Kr : W. J. Pietro, B. A. Levy, W. J. Hehre and R. F. Stewart, J. Am. Chem. Soc. 19, 2225 (1980).
   Sc-Zn,Y-Cd : W. J. Pietro and W. J. Hehre, J. Comp. Chem. 4, 241 (1983).

================================================================================
                                        WARNINGS
                       Please study these warnings very carefully!
================================================================================


WARNING: Geometry optimizations can change the point-group symmetry!

Warning: TCutStore was < 0. Adjusted to Thresh (uncritical)

WARNING: Geometry Optimization
  ===> : Switching off AutoStart
         For restart on a previous wavefunction, please use MOREAD

INFO   : the flag for use of LIBINT has been found!

================================================================================
                                       INPUT FILE
================================================================================
NAME = dvb_scan.inp
|  1> # Scan dihedral restricted B3LYP/sto-3g calc
|  2> ! RKS STO-3G B3LYP UseSym Opt
|  3> 
|  4> %output
|  5>  PrintLevel Normal
|  6> end 
|  7> 
|  8> % geom
|  9>   Scan
| 10>     D 4 3 10 11 = -180.0, 180.0, 13
| 11>   end
| 12> end
| 13> 
| 14> * xyz 0 1
| 15> C          1.43509       -0.04780       -0.00010
| 16> C          0.73780        1.19228       -0.00002
| 17> C         -0.66368        1.24151       -0.00001
| 18> C         -1.43515        0.04767        0.00006
| 19> C         -0.73787       -1.19242       -0.00002
| 20> C          0.66362       -1.24165       -0.00002
| 21> H          1.31386        2.12801        0.00015
| 22> H         -1.16822        2.21645        0.00014
| 23> H         -1.31393       -2.12815        0.00006
| 24> H          1.16816       -2.21659        0.00006
| 25> C         -2.93303        0.04344       -0.00002
| 26> C         -3.73731        1.12067        0.00003
| 27> H         -3.38578       -0.95970       -0.00014
| 28> H         -4.82871        1.01517       -0.00009
| 29> H         -3.35133        2.14657       -0.00007
| 30> C          2.93296       -0.04343        0.00003
| 31> C          3.73745       -1.12051       -0.00004
| 32> H          3.38556        0.95978       -0.00003
| 33> H          4.82882       -1.01477       -0.00007
| 34> H          3.35169       -2.14649        0.00009
| 35> *
| 36> 
| 37> 
| 38>                          ****END OF INPUT****
================================================================================

------------------------------------------------------------------------------
                            SYMMETRY HANDLING SETUP
------------------------------------------------------------------------------

------------------
SYMMETRY DETECTION
------------------
Preparing Data                    ... done
Detection Threshold:    SymThresh ... 1.0000e-04

Point Group will now be determined:
Total Mass                        ...   130.1900 amu
Center of Mass                    ...  -0.00001917  -0.00003775  -0.00001771
Moving molecule to center of mass ... done
Searching for symmetry axes       ...

 #  N FMOD  D1  D2  D3       AX           AY           AZ

Axis search                       ... found no axes
Point group main block by axes    ... C1 (nonaxial) Block
Inversion center                  ... no
Symmetry plane                    ...no

POINT GROUP                       ... C1

The coordinates will now be cleaned:
Moving to standard coord frame    ... done
(Changed atom 0 to z axis and atom 1 in xz plane)
Structure cleanup requested       ... skipped (C1)

------------------
SYMMETRY REDUCTION
------------------
ORCA supports only abelian point groups.
It is now checked, if the determined point group is supported:
Point Group ( C1    ) is          ... supported

The point group is C1 - hence turning off symmetry
If this is a round-off problem, please increase the symmetry
        detection tolerance (%method SymThresh)

Storing the symmetry object:
Symmetry file                     ... dvb_scan.sym.tmp
Writing symmetry information      ... done

                       ******************************
                       *    Relaxed Surface Scan    *
                       ******************************

        Dihedral ( 11,  10,   3,   4):   range= -180.00000000 .. 180.00000000  steps =   13

There is 1 parameter to be scanned
There will be   13 energy evaluations


         *************************************************************
         *               RELAXED SURFACE SCAN STEP   1               *
         *                                                           *
         *   Dihedral ( 11,  10,   3,   4)  : -180.00000000           *
         *************************************************************

Geometry optimization settings:
Update method            Update   .... BFGS
Choice of coordinates    CoordSys .... Redundant Internals
Initial Hessian          InHess   .... Almoef's Model

Convergence Tolerances:
Energy Change            TolE     ....  5.0000e-06 Eh
Max. Gradient            TolMAXG  ....  3.0000e-04 Eh/bohr
RMS Gradient             TolRMSG  ....  1.0000e-04 Eh/bohr
Max. Displacement        TolMAXD  ....  4.0000e-03 bohr
RMS Displacement         TolRMSD  ....  2.0000e-03 bohr

------------------------------------------------------------------------------
                        ORCA OPTIMIZATION COORDINATE SETUP
------------------------------------------------------------------------------

The optimization will be done in new redundant internal coordinates
Making redundant internal coordinates   ...  (new redundants) done
Evaluating the initial hessian          ...  (Almloef) done
Evaluating the coordinates              ...  done
Calculating the B-matrix                .... done
Calculating the G-matrix                .... done
Diagonalizing the G-matrix              .... done
Imposing constraints:
 Iter   0:  RMS(Cart)=    0.0000016136 RMS(Int)=    0.0000045540
 Iter   1:  RMS(Cart)=    0.0000008876 RMS(Int)=    0.0000025050
 Iter   2:  RMS(Cart)=    0.0000004882 RMS(Int)=    0.0000013779
 Iter   3:  RMS(Cart)=    0.0000002686 RMS(Int)=    0.0000007579
 Iter   4:  RMS(Cart)=    0.0000001477 RMS(Int)=    0.0000004169
 Iter   5:  RMS(Cart)=    0.0000000813 RMS(Int)=    0.0000002293
 Iter   6:  RMS(Cart)=    0.0000000447 RMS(Int)=    0.0000001261
 Iter   7:  RMS(Cart)=    0.0000000246 RMS(Int)=    0.0000000694
CONVERGED
Small eigenvalue found = 1.561e-02
The first mode is                       ....   36
The number of degrees of freedom        ....   54
Storing new coordinates                 .... done

    -----------------------------------------------------------------
                    Redundant Internal Coordinates


    -----------------------------------------------------------------
         Definition                    Initial Value    Approx d2E/dq
    -----------------------------------------------------------------
      1. B(C   1,C   0)                  1.4227         0.554119   
      2. B(C   2,C   1)                  1.4023         0.597096   
      3. B(C   3,C   2)                  1.4214         0.556696   
      4. B(C   4,C   3)                  1.4227         0.554112   
      5. B(C   5,C   0)                  1.4214         0.556679   
      6. B(C   5,C   4)                  1.4024         0.597074   
      7. B(H   6,C   1)                  1.0988         0.348602   
      8. B(H   7,C   2)                  1.0978         0.349984   
      9. B(H   8,C   4)                  1.0988         0.348602   
     10. B(H   9,C   5)                  1.0978         0.349984   
     11. B(C  10,C   3)                  1.4979         0.420352   
     12. B(C  11,C  10)                  1.3444         0.738860   
     13. B(H  12,C  10)                  1.1006         0.346375   
     14. B(H  13,C  11)                  1.0965         0.351620   
     15. B(H  14,C  11)                  1.0961         0.352111   
     16. B(C  15,C   0)                  1.4979         0.420367   
     17. B(C  16,C  15)                  1.3444         0.738845   
     18. B(H  17,C  15)                  1.1006         0.346372   
     19. B(H  18,C  16)                  1.0965         0.351628   
     20. B(H  19,C  16)                  1.0961         0.352114   
     21. A(C   5,C   0,C  15)          123.0378         0.397401   
     22. A(C   1,C   0,C   5)          117.7805         0.417299   
     23. A(C   1,C   0,C  15)          119.1816         0.397079   
     24. A(C   0,C   1,C   2)          121.3606         0.422549   
     25. A(C   0,C   1,H   6)          119.0337         0.344400   
     26. A(C   2,C   1,H   6)          119.6057         0.348755   
     27. A(C   3,C   2,H   7)          119.7671         0.344898   
     28. A(C   1,C   2,C   3)          120.8591         0.422899   
     29. A(C   1,C   2,H   7)          119.3738         0.348988   
     30. A(C   2,C   3,C  10)          123.0327         0.397400   
     31. A(C   4,C   3,C  10)          119.1865         0.397076   
     32. A(C   2,C   3,C   4)          117.7808         0.417301   
     33. A(C   3,C   4,C   5)          121.3601         0.422545   
     34. A(C   3,C   4,H   8)          119.0342         0.344400   
     35. A(C   5,C   4,H   8)          119.6057         0.348753   
     36. A(C   0,C   5,C   4)          120.8589         0.422894   
     37. A(C   0,C   5,H   9)          119.7674         0.344896   
     38. A(C   4,C   5,H   9)          119.3738         0.348986   
     39. A(C   3,C  10,C  11)          126.5839         0.417807   
     40. A(C   3,C  10,H  12)          114.4530         0.328571   
     41. A(C  11,C  10,H  12)          118.9631         0.361191   
     42. A(C  10,C  11,H  13)          121.2244         0.362119   
     43. A(C  10,C  11,H  14)          122.6362         0.362205   
     44. A(H  13,C  11,H  14)          116.1394         0.288737   
     45. A(C   0,C  15,C  16)          126.5895         0.417808   
     46. A(C   0,C  15,H  17)          114.4498         0.328572   
     47. A(C  16,C  15,H  17)          118.9607         0.361190   
     48. A(C  15,C  16,H  18)          121.2227         0.362119   
     49. A(C  15,C  16,H  19)          122.6375         0.362204   
     50. A(H  18,C  16,H  19)          116.1398         0.288738   
     51. D(H   6,C   1,C   0,C  15)     -0.0009         0.021016   
     52. D(C   2,C   1,C   0,C  15)   -179.9940         0.021016   
     53. D(C   2,C   1,C   0,C   5)     -0.0068         0.021016   
     54. D(H   6,C   1,C   0,C   5)    179.9863         0.021016   
     55. D(H   7,C   2,C   1,C   0)    179.9947         0.024565   
     56. D(C   3,C   2,C   1,H   6)   -179.9866         0.024565   
     57. D(H   7,C   2,C   1,H   6)      0.0017         0.024565   
     58. D(C   3,C   2,C   1,C   0)      0.0065         0.024565   
     59. D(C   4,C   3,C   2,C   1)     -0.0063         0.021219   
     60. D(C   4,C   3,C   2,H   7)   -179.9944         0.021219   
     61. D(C  10,C   3,C   2,C   1)   -179.9958         0.021219   
     62. D(C  10,C   3,C   2,H   7)      0.0160         0.021219   
     63. D(C   5,C   4,C   3,C   2)      0.0068         0.021015   
     64. D(C   5,C   4,C   3,C  10)    179.9967         0.021015   
     65. D(H   8,C   4,C   3,C   2)    179.9983         0.021015   
     66. D(H   8,C   4,C   3,C  10)     -0.0118         0.021015   
     67. D(C   4,C   5,C   0,C   1)      0.0073         0.021218   
     68. D(H   9,C   5,C   4,C   3)    179.9915         0.024563   
     69. D(H   9,C   5,C   0,C   1)   -179.9917         0.021218   
     70. D(H   9,C   5,C   0,C  15)     -0.0051         0.021218   
     71. D(C   0,C   5,C   4,C   3)     -0.0075         0.024563   
     72. D(C   4,C   5,C   0,C  15)    179.9939         0.021218   
     73. D(C   0,C   5,C   4,H   8)   -179.9989         0.024563   
     74. D(H   9,C   5,C   4,H   8)      0.0000         0.024563   
     75. D(C  11,C  10,C   3,C   2)     -0.0106         0.012092   
     76. D(C  11,C  10,C   3,C   4)   -180.0000         0.012092 C 
     77. D(H  12,C  10,C   3,C   2)    179.9891         0.012092   
     78. D(H  12,C  10,C   3,C   4)     -0.0003         0.012092   
     79. D(H  13,C  11,C  10,C   3)    179.9969         0.038821   
     80. D(H  13,C  11,C  10,H  12)     -0.0028         0.038821   
     81. D(H  14,C  11,C  10,C   3)      0.0131         0.038821   
     82. D(H  14,C  11,C  10,H  12)   -179.9866         0.038821   
     83. D(C  16,C  15,C   0,C   1)   -179.9991         0.012093   
     84. D(C  16,C  15,C   0,C   5)      0.0145         0.012093   
     85. D(H  17,C  15,C   0,C   1)     -0.0122         0.012093   
     86. D(H  17,C  15,C   0,C   5)   -179.9986         0.012093   
     87. D(H  18,C  16,C  15,C   0)    179.9916         0.038819   
     88. D(H  18,C  16,C  15,H  17)      0.0052         0.038819   
     89. D(H  19,C  16,C  15,C   0)     -0.0184         0.038819   
     90. D(H  19,C  16,C  15,H  17)    179.9952         0.038819   
    -----------------------------------------------------------------

Number of atoms                         .... 20
Number of degrees of freedom            .... 90

         *************************************************************
         *                GEOMETRY OPTIMIZATION CYCLE   1            *
         *************************************************************
---------------------------------
CARTESIAN COORDINATES (ANGSTROEM)
---------------------------------
  C     -0.000000   -0.000001    1.435895
  C      1.216191   -0.000002    0.697727
  C      1.218759   -0.000082   -0.704615
  C     -0.000091   -0.000025   -1.435932
  C     -1.216292   -0.000023   -0.697774
  C     -1.218860    0.000067    0.704578
  H      2.170571    0.000176    1.242331
  H      2.176370    0.000007   -1.241317
  H     -2.170673    0.000050   -1.242378
  H     -2.176471    0.000209    1.241281
  C     -0.054162   -0.000197   -2.932842
  C      0.995709   -0.000222   -3.772522
  H     -1.071812   -0.000317   -3.351961
  H      0.853951   -0.000405   -4.859807
  H      2.033885   -0.000325   -3.420893
  C      0.054210    0.000224    2.932790
  C     -0.995504    0.000237    3.772675
  H      1.071925    0.000162    3.351758
  H     -0.853507    0.000272    4.859922
  H     -2.033752    0.000374    3.421269

----------------------------
CARTESIAN COORDINATES (A.U.)
----------------------------
  NO LB      ZA    FRAG     MASS         X           Y           Z
   0 C     6.0000    0    12.011   -0.000000   -0.000001    2.713449
   1 C     6.0000    0    12.011    2.298267   -0.000004    1.318513
   2 C     6.0000    0    12.011    2.303120   -0.000155   -1.331529
   3 C     6.0000    0    12.011   -0.000173   -0.000047   -2.713518
   4 C     6.0000    0    12.011   -2.298459   -0.000043   -1.318601
   5 C     6.0000    0    12.011   -2.303311    0.000127    1.331460
   6 H     1.0000    0     1.008    4.101785    0.000333    2.347666
   7 H     1.0000    0     1.008    4.112743    0.000014   -2.345749
   8 H     1.0000    0     1.008   -4.101977    0.000094   -2.347754
   9 H     1.0000    0     1.008   -4.112934    0.000394    2.345680
  10 C     6.0000    0    12.011   -0.102351   -0.000373   -5.542268
  11 C     6.0000    0    12.011    1.881618   -0.000420   -7.129033
  12 H     1.0000    0     1.008   -2.025430   -0.000600   -6.334289
  13 H     1.0000    0     1.008    1.613733   -0.000765   -9.183704
  14 H     1.0000    0     1.008    3.843485   -0.000614   -6.464550
  15 C     6.0000    0    12.011    0.102442    0.000422    5.542171
  16 C     6.0000    0    12.011   -1.881230    0.000448    7.129323
  17 H     1.0000    0     1.008    2.025644    0.000305    6.333904
  18 H     1.0000    0     1.008   -1.612894    0.000515    9.183922
  19 H     1.0000    0     1.008   -3.843234    0.000706    6.465261

--------------------------------
INTERNAL COORDINATES (ANGSTROEM)
--------------------------------
 C      0   0   0     0.000000000000     0.00000000     0.00000000
 C      1   0   0     1.422677671470     0.00000000     0.00000000
 C      2   1   0     1.402344388301   121.36061304     0.00000000
 C      3   2   1     1.421414756994   120.85909269     0.00000000
 C      4   3   2     1.422681486806   117.78084239     0.00000000
 C      5   4   3     1.402354382102   121.36005024     0.00000000
 H      2   1   3     1.098833829749   119.03365222   179.99313528
 H      3   2   1     1.097756183175   119.37377123   179.99477000
 H      5   4   3     1.098833819510   119.03420011   179.99832717
 H      6   5   4     1.097756175842   119.37375704   179.99143548
 C      4   3   2     1.497885974866   123.03270510   180.00427474
 C     11   4   3     1.344355159100   126.58390167     0.00000000
 H     11   4   3     1.100578228251   114.45302108   179.98917340
 H     12  11   4     1.096487220354   121.22437135   179.99676811
 H     12  11   4     1.096107376309   122.63621378     0.00000000
 C      1   2   3     1.497876380313   119.18164367   180.00600973
 C     16   1   2     1.344360625502   126.58954144   180.00093996
 H     16   1   2     1.100580332234   114.44976001     0.00000000
 H     17  16   1     1.096480471965   121.22273455   179.99156728
 H     17  16   1     1.096104810180   122.63745299     0.00000000

---------------------------
INTERNAL COORDINATES (A.U.)
---------------------------
 C      0   0   0     0.000000000000     0.00000000     0.00000000
 C      1   0   0     2.688471175924     0.00000000     0.00000000
 C      2   1   0     2.650046839331   121.36061304     0.00000000
 C      3   2   1     2.686084613433   120.85909269     0.00000000
 C      4   3   2     2.688478385863   117.78084239     0.00000000
 C      5   4   3     2.650065724877   121.36005024     0.00000000
 H      2   1   3     2.076495004913   119.03365222   179.99313528
 H      3   2   1     2.074458548020   119.37377123   179.99477000
 H      5   4   3     2.076494985565   119.03420011   179.99832717
 H      6   5   4     2.074458534163   119.37375704   179.99143548
 C      4   3   2     2.830594272338   123.03270510   180.00427474
 C     11   4   3     2.540463077424   126.58390167     0.00000000
 H     11   4   3     2.079791440351   114.45302108   179.98917340
 H     12  11   4     2.072060555814   121.22437135   179.99676811
 H     12  11   4     2.071342754596   122.63621378     0.00000000
 C      1   2   3     2.830576141261   119.18164367   180.00600973
 C     16   1   2     2.540473407426   126.58954144   180.00093996
 H     16   1   2     2.079795416302   114.44976001     0.00000000
 H     17  16   1     2.072047803206   121.22273455   179.99156728
 H     17  16   1     2.071337905314   122.63745299     0.00000000

---------------------
BASIS SET INFORMATION
---------------------
There are 2 groups of distinct atoms

 Group   1 Type C   : 6s3p contracted to 2s1p pattern {33/3}
 Group   2 Type H   : 3s contracted to 1s pattern {3}

Atom   0C    basis set group =>   1
Atom   1C    basis set group =>   1
Atom   2C    basis set group =>   1
Atom   3C    basis set group =>   1
Atom   4C    basis set group =>   1
Atom   5C    basis set group =>   1
Atom   6H    basis set group =>   2
Atom   7H    basis set group =>   2
Atom   8H    basis set group =>   2
Atom   9H    basis set group =>   2
Atom  10C    basis set group =>   1
Atom  11C    basis set group =>   1
Atom  12H    basis set group =>   2
Atom  13H    basis set group =>   2
Atom  14H    basis set group =>   2
Atom  15C    basis set group =>   1
Atom  16C    basis set group =>   1
Atom  17H    basis set group =>   2
Atom  18H    basis set group =>   2
Atom  19H    basis set group =>   2
------------------------------------------------------------------------------
                           ORCA GTO INTEGRAL CALCULATION
------------------------------------------------------------------------------

                         BASIS SET STATISTICS AND STARTUP INFO

 # of primitive gaussian shells          ...  120
 # of primitive gaussian functions       ...  180
 # of contracted shells                  ...   40
 # of contracted basis functions         ...   60
 Highest angular momentum                ...    1
 Maximum contraction depth               ...    3
 Integral package used                   ... LIBINT
 Integral threshhold            Thresh   ...  2.500e-11
 Primitive cut-off              TCut     ...  2.500e-12


------------------------------ INTEGRAL EVALUATION ----------------------------


 * One electron integrals 
 Pre-screening matrix                    ... done
 Shell pair data                         ... done (   0.001 sec)

-------------------------------------------------------------------------------
                                 ORCA SCF
-------------------------------------------------------------------------------

------------
SCF SETTINGS
------------
Hamiltonian:
 Density Functional     Method          .... DFT(GTOs)
 Exchange Functional    Exchange        .... B88
   X-Alpha parameter    XAlpha          ....  0.666667
   Becke's b parameter  XBeta           ....  0.004200
 Correlation Functional Correlation     .... LYP
 LDA part of GGA corr.  LDAOpt          .... VWN-5
 Gradients option       PostSCFGGA      .... off
 Hybrid DFT is turned on
   Fraction HF Exchange ScalHFX         ....  0.200000
   Scaling of DF-GGA-X  ScalDFX         ....  0.720000
   Scaling of DF-GGA-C  ScalDFC         ....  0.810000
   Scaling of DF-LDA-C  ScalLDAC        ....  1.000000
   Perturbative correction              ....  0.000000
   NL short-range parameter             ....  4.800000


General Settings:
 Integral files         IntName         .... dvb_scan
 Hartree-Fock type      HFTyp           .... RHF
 Total Charge           Charge          ....    0
 Multiplicity           Mult            ....    1
 Number of Electrons    NEL             ....   70
 Basis Dimension        Dim             ....   60
 Nuclear Repulsion      ENuc            ....    445.8321397269 Eh

Convergence Acceleration:
 DIIS                   CNVDIIS         .... on
   Start iteration      DIISMaxIt       ....    12
   Startup error        DIISStart       ....  0.200000
   # of expansion vecs  DIISMaxEq       ....     5
   Bias factor          DIISBfac        ....   1.050
   Max. coefficient     DIISMaxC        ....  10.000
 Newton-Raphson         CNVNR           .... off
 SOSCF                  CNVSOSCF        .... on
   Start iteration      SOSCFMaxIt      ....   150
   Startup grad/error   SOSCFStart      ....  0.003300
 Level Shifting         CNVShift        .... on
   Level shift para.    LevelShift      ....    0.2500
   Turn off err/grad.   ShiftErr        ....    0.0010
 Zerner damping         CNVZerner       .... off
 Static damping         CNVDamp         .... on
   Fraction old density DampFac         ....    0.7000
   Max. Damping (<1)    DampMax         ....    0.9800
   Min. Damping (>=0)   DampMin         ....    0.0000
   Turn off err/grad.   DampErr         ....    0.1000
 Fernandez-Rico         CNVRico         .... off

SCF Procedure:
 Maximum # iterations   MaxIter         ....   125
 SCF integral mode      SCFMode         .... Direct
   Integral package                     .... LIBINT
 Reset frequeny         DirectResetFreq ....    20
 Integral Threshold     Thresh          ....  2.500e-11 Eh
 Primitive CutOff       TCut            ....  2.500e-12 Eh

Convergence Tolerance:
 Convergence Check Mode ConvCheckMode   .... Total+1el-Energy
 Convergence forced     ConvForced      .... 0
 Energy Change          TolE            ....  1.000e-08 Eh
 1-El. energy change                    ....  1.000e-05 Eh
 Orbital Gradient       TolG            ....  1.000e-05
 Orbital Rotation angle TolX            ....  1.000e-05
 DIIS Error             TolErr          ....  5.000e-07


Diagonalization of the overlap matrix:
Smallest eigenvalue                        ... 1.815e-01
Time for diagonalization                   ...    0.149 sec
Threshold for overlap eigenvalues          ... 1.000e-08
Number of eigenvalues below threshold      ... 0
Time for construction of square roots      ...    0.007 sec
Total time needed                          ...    0.156 sec

-------------------
DFT GRID GENERATION
-------------------

General Integration Accuracy     IntAcc      ...  4.340
Radial Grid Type                 RadialGrid  ... Gauss-Chebyshev
Angular Grid (max. acc.)         AngularGrid ... Lebedev-110
Angular grid pruning method      GridPruning ... 3 (G Style)
Weight generation scheme         WeightScheme... Becke
Basis function cutoff            BFCut       ...    1.0000e-11
Integration weight cutoff        WCut        ...    1.0000e-14
Grids for H and He will be reduced by one unit

# of grid points (after initial pruning)     ...  24500 (   0.0 sec)
# of grid points (after weights+screening)   ...  22571 (   0.1 sec)
nearest neighbour list constructed           ...    0.0 sec
Grid point re-assignment to atoms done       ...    0.0 sec
Grid point division into batches done        ...    0.0 sec
Reduced shell lists constructed in    0.4 sec

Total number of grid points                  ...    22571
Total number of batches                      ...      362
Average number of points per batch           ...       62
Average number of grid points per atom       ...     1129
Average number of shells per batch           ...    26.98 (67.45%)
Average number of basis functions per batch  ...    44.12 (73.53%)
Average number of large shells per batch     ...    20.50 (76.00%)
Average number of large basis fcns per batch ...    34.34 (77.84%)
Maximum spatial batch extension              ...  20.53, 44.34, 18.54 au
Average spatial batch extension              ...   3.93,  5.57,  3.21 au

Time for grid setup =    0.541 sec

------------------------------
INITIAL GUESS: MODEL POTENTIAL
------------------------------
Loading Hartree-Fock densities                     ... done
Calculating cut-offs                               ... done
Setting up the integral package                    ... done
Initializing the effective Hamiltonian             ... done
Starting the Coulomb interaction                   ... done (   0.2 sec)
Reading the grid                                   ... done
Mapping shells                                     ... done
Starting the XC term evaluation                    ... done (   0.4 sec)
  promolecular density results
     # of electrons  =     69.999792741
     EX              =    -54.263801741
     EC              =     -2.295092441
     EX+EC           =    -56.558894182
Transforming the Hamiltonian                       ... done (   0.0 sec)
Diagonalizing the Hamiltonian                      ... done (   0.0 sec)
Back transforming the eigenvectors                 ... done (   0.0 sec)
Now organizing SCF variables                       ... done
                      ------------------
                      INITIAL GUESS DONE (   1.2 sec)
                      ------------------
--------------
SCF ITERATIONS
--------------
               ***  Starting incremental Fock matrix formation  ***

                         ----------------------------
                         !        ITERATION     0   !
                         ----------------------------
   Total Energy        :    -381.997651223663 Eh
   Energy Change       :    -381.997651223663 Eh
   MAX-DP              :       0.042287766535
   RMS-DP              :       0.003174012490
   Actual Damping      :       0.7000
   Actual Level Shift  :       0.2500 Eh
   Int. Num. El.       :    69.99574112 (UP=   34.99787056 DN=   34.99787056)
   Exchange            :   -43.89536670
   Correlation         :    -2.72805054


                         ----------------------------
                         !        ITERATION     1   !
                         ----------------------------
   Total Energy        :    -382.018251093766 Eh
   Energy Change       :      -0.020599870102 Eh
   MAX-DP              :       0.033241529529
   RMS-DP              :       0.002507046344
   Actual Damping      :       0.7000
   Actual Level Shift  :       0.2500 Eh
   Int. Num. El.       :    69.99604229 (UP=   34.99802115 DN=   34.99802115)
   Exchange            :   -43.86040626
   Correlation         :    -2.72434705

                               ***Turning on DIIS***

                         ----------------------------
                         !        ITERATION     2   !
                         ----------------------------
   Total Energy        :    -382.029580797286 Eh
   Energy Change       :      -0.011329703520 Eh
   MAX-DP              :       0.065316290136
   RMS-DP              :       0.004968540936
   Actual Damping      :       0.0000
   Actual Level Shift  :       0.2500 Eh
   Int. Num. El.       :    69.99628186 (UP=   34.99814093 DN=   34.99814093)
   Exchange            :   -43.83409218
   Correlation         :    -2.72141755
   DIIS-Error          :       0.025897481630


                         ----------------------------
                         !        ITERATION     3   !
                         ----------------------------
   Total Energy        :    -382.047144315310 Eh
   Energy Change       :      -0.017563518024 Eh
   MAX-DP              :       0.022035745515
   RMS-DP              :       0.001613895081
   Actual Damping      :       0.0000
   Actual Level Shift  :       0.2500 Eh
   Int. Num. El.       :    69.99675360 (UP=   34.99837680 DN=   34.99837680)
   Exchange            :   -43.78631075
   Correlation         :    -2.71560650
   DIIS-Error          :       0.017329026206
   DIIS coefficients:
      0.36905   0.63095


                         ----------------------------
                         !        ITERATION     4   !
                         ----------------------------
   Total Energy        :    -382.049601962935 Eh
   Energy Change       :      -0.002457647625 Eh
   MAX-DP              :       0.005527916509
   RMS-DP              :       0.000389274455
   Actual Damping      :       0.0000
   Actual Level Shift  :       0.2500 Eh
   Int. Num. El.       :    69.99660137 (UP=   34.99830068 DN=   34.99830068)
   Exchange            :   -43.80282327
   Correlation         :    -2.71733510
   DIIS-Error          :       0.003855104065
   DIIS coefficients:
      0.12894   0.07890   0.79216

                      *** Initiating the SOSCF procedure ***
                           *** Shutting down DIIS ***
                      *** Re-Reading the Fockian *** 
                      *** Removing any level shift *** 

                         ----------------------------
                         !        ITERATION     5   !
                         ----------------------------
   Total Energy        :    -382.049720988073 Eh
   Energy Change       :      -0.000119025138 Eh
   MAX-DP              :       0.000970985984
   RMS-DP              :       0.000076195678
   Orbital gradient    :       0.000380437915
   Orbital Rotation    :       0.000380437915
   Actual Damping      :       0.0000
   Int. Num. El.       :    69.99657582 (UP=   34.99828791 DN=   34.99828791)
   Exchange            :   -43.80631127
   Correlation         :    -2.71771562

               *** Restarting incremental Fock matrix formation ***

                         ----------------------------
                         !        ITERATION     6   !
                         ----------------------------
   Total Energy        :    -382.049727777687 Eh
   Energy Change       :      -0.000006789614 Eh
   MAX-DP              :       0.000875515939
   RMS-DP              :       0.000047795404
   Orbital gradient    :       0.000222935535
   Orbital Rotation    :       0.000892835683
   Actual Damping      :       0.0000
   Int. Num. El.       :    69.99656928 (UP=   34.99828464 DN=   34.99828464)
   Exchange            :   -43.80685974
   Correlation         :    -2.71777387


                         ----------------------------
                         !        ITERATION     7   !
                         ----------------------------
   Total Energy        :    -382.049727908669 Eh
   Energy Change       :      -0.000000130982 Eh
   MAX-DP              :       0.000633114299
   RMS-DP              :       0.000027557755
   Orbital gradient    :       0.000165399571
   Orbital Rotation    :       0.000352195491
   Actual Damping      :       0.0000
   Int. Num. El.       :    69.99656531 (UP=   34.99828265 DN=   34.99828265)
   Exchange            :   -43.80706325
   Correlation         :    -2.71779429


                         ----------------------------
                         !        ITERATION     8   !
                         ----------------------------
   Total Energy        :    -382.049728373470 Eh
   Energy Change       :      -0.000000464802 Eh
   MAX-DP              :       0.000207422963
   RMS-DP              :       0.000013866835
   Orbital gradient    :       0.000054670581
   Orbital Rotation    :       0.000120984457
   Actual Damping      :       0.0000
   Int. Num. El.       :    69.99656625 (UP=   34.99828313 DN=   34.99828313)
   Exchange            :   -43.80704200
   Correlation         :    -2.71779275


                         ----------------------------
                         !        ITERATION     9   !
                         ----------------------------
   Total Energy        :    -382.049728393463 Eh
   Energy Change       :      -0.000000019992 Eh
   MAX-DP              :       0.000100821701
   RMS-DP              :       0.000006574064
   Orbital gradient    :       0.000037587672
   Orbital Rotation    :       0.000038155894
   Actual Damping      :       0.0000
   Int. Num. El.       :    69.99656713 (UP=   34.99828356 DN=   34.99828356)
   Exchange            :   -43.80695205
   Correlation         :    -2.71778313


                         ----------------------------
                         !        ITERATION    10   !
                         ----------------------------
   Total Energy        :    -382.049728424025 Eh
   Energy Change       :      -0.000000030562 Eh
   MAX-DP              :       0.000030090058
   RMS-DP              :       0.000002331219
   Orbital gradient    :       0.000008223698
   Orbital Rotation    :       0.000023731970
   Actual Damping      :       0.0000
   Int. Num. El.       :    69.99656677 (UP=   34.99828338 DN=   34.99828338)
   Exchange            :   -43.80698175
   Correlation         :    -2.71778622


                         ----------------------------
                         !        ITERATION    11   !
                         ----------------------------
   Total Energy        :    -382.049728424352 Eh
   Energy Change       :      -0.000000000327 Eh
   MAX-DP              :       0.000014735180
   RMS-DP              :       0.000001096341
   Orbital gradient    :       0.000006191856
   Orbital Rotation    :       0.000010731461
   Actual Damping      :       0.0000
   Int. Num. El.       :    69.99656665 (UP=   34.99828332 DN=   34.99828332)
   Exchange            :   -43.80699855
   Correlation         :    -2.71778802

                  ***Gradient check signals convergence***
              ***Rediagonalizing the Fockian in SOSCF/NRSCF***

               *****************************************************
               *                     SUCCESS                       *
               *           SCF CONVERGED AFTER  12 CYCLES          *
               *****************************************************

Setting up the final grid:

General Integration Accuracy     IntAcc      ...  4.670
Radial Grid Type                 RadialGrid  ... Gauss-Chebyshev
Angular Grid (max. acc.)         AngularGrid ... Lebedev-302
Angular grid pruning method      GridPruning ... 3 (G Style)
Weight generation scheme         WeightScheme... Becke
Basis function cutoff            BFCut       ...    1.0000e-11
Integration weight cutoff        WCut        ...    1.0000e-14
Grids for H and He will be reduced by one unit

# of grid points (after initial pruning)     ...  96060 (   0.0 sec)
# of grid points (after weights+screening)   ...  87175 (   0.4 sec)
nearest neighbour list constructed           ...    0.0 sec
Grid point re-assignment to atoms done       ...    0.0 sec
Grid point division into batches done        ...    0.4 sec
Reduced shell lists constructed in    1.5 sec

Total number of grid points                  ...    87175
Total number of batches                      ...     1374
Average number of points per batch           ...       63
Average number of grid points per atom       ...     4359
Average number of shells per batch           ...    24.84 (62.11%)
Average number of basis functions per batch  ...    40.84 (68.06%)
Average number of large shells per batch     ...    18.30 (73.66%)
Average number of large basis fcns per batch ...    30.85 (75.55%)
Maximum spatial batch extension              ...  18.36, 23.20, 19.80 au
Average spatial batch extension              ...   2.49,  2.84,  2.27 au

Final grid set up in    1.9 sec
Final integration                            ... done (   1.2 sec)
Change in XC energy                          ...    -0.001056231
Integrated number of electrons               ...    69.999941768
Previous integrated no of electrons          ...    69.996566710

----------------
TOTAL SCF ENERGY
----------------

Total Energy       :         -382.05078466 Eh          -10396.13038 eV

Components:
Nuclear Repulsion  :          445.83213973 Eh           12131.70929 eV
Electronic Energy  :         -827.88292438 Eh          -22527.83967 eV
One Electron Energy:        -1400.42949567 Eh          -38107.62393 eV
Two Electron Energy:          572.54657129 Eh           15579.78427 eV

Virial components:
Potential Energy   :         -757.89105249 Eh          -20623.26400 eV
Kinetic Energy     :          375.84026783 Eh           10227.13363 eV
Virial Ratio       :            2.01652435


DFT components:
N(Alpha)           :       34.999970884148 electrons
N(Beta)            :       34.999970884148 electrons
N(Total)           :       69.999941768296 electrons
E(X)               :      -43.808064261034 Eh       
E(C)               :       -2.717769428297 Eh       
E(XC)              :      -46.525833689331 Eh       

---------------
SCF CONVERGENCE
---------------

  Last Energy change         ...   -6.2954e-10  Tolerance :   1.0000e-08
  Last MAX-Density change    ...    2.9200e-06  Tolerance :   1.0000e-07
  Last RMS-Density change    ...    1.9311e-07  Tolerance :   5.0000e-09
  Last Orbital Gradient      ...    5.9481e-07  Tolerance :   1.0000e-05
  Last Orbital Rotation      ...    1.7237e-06  Tolerance :   1.0000e-05

             **** THE GBW FILE WAS UPDATED (dvb_scan.gbw) ****
             **** DENSITY FILE WAS UPDATED (dvb_scan.scfp.tmp) ****
             **** ENERGY FILE WAS UPDATED (dvb_scan.en.tmp) ****
----------------
ORBITAL ENERGIES
----------------

  NO   OCC          E(Eh)            E(eV) 
   0   2.0000     -10.016201      -272.5547 
   1   2.0000     -10.016153      -272.5534 
   2   2.0000     -10.004145      -272.2266 
   3   2.0000     -10.004143      -272.2266 
   4   2.0000     -10.002869      -272.1919 
   5   2.0000     -10.002865      -272.1918 
   6   2.0000     -10.002147      -272.1723 
   7   2.0000     -10.002008      -272.1685 
   8   2.0000      -9.988572      -271.8029 
   9   2.0000      -9.988570      -271.8028 
  10   2.0000      -0.805781       -21.9264 
  11   2.0000      -0.750226       -20.4147 
  12   2.0000      -0.714213       -19.4347 
  13   2.0000      -0.696038       -18.9401 
  14   2.0000      -0.663784       -18.0625 
  15   2.0000      -0.584990       -15.9184 
  16   2.0000      -0.555208       -15.1080 
  17   2.0000      -0.527997       -14.3675 
  18   2.0000      -0.506474       -13.7819 
  19   2.0000      -0.453722       -12.3464 
  20   2.0000      -0.435632       -11.8541 
  21   2.0000      -0.406943       -11.0735 
  22   2.0000      -0.394252       -10.7281 
  23   2.0000      -0.392475       -10.6798 
  24   2.0000      -0.370263       -10.0754 
  25   2.0000      -0.347535        -9.4569 
  26   2.0000      -0.343665        -9.3516 
  27   2.0000      -0.320727        -8.7274 
  28   2.0000      -0.307585        -8.3698 
  29   2.0000      -0.289128        -7.8676 
  30   2.0000      -0.283764        -7.7216 
  31   2.0000      -0.259765        -7.0686 
  32   2.0000      -0.208640        -5.6774 
  33   2.0000      -0.191314        -5.2059 
  34   2.0000      -0.149327        -4.0634 
  35   0.0000       0.041124         1.1190 
  36   0.0000       0.094097         2.5605 
  37   0.0000       0.114338         3.1113 
  38   0.0000       0.185854         5.0573 
  39   0.0000       0.276145         7.5143 
  40   0.0000       0.335716         9.1353 
  41   0.0000       0.344200         9.3662 
  42   0.0000       0.382873        10.4185 
  43   0.0000       0.384828        10.4717 
  44   0.0000       0.414376        11.2757 
  45   0.0000       0.415332        11.3018 
  46   0.0000       0.430138        11.7047 
  47   0.0000       0.443017        12.0551 
  48   0.0000       0.456285        12.4162 
  49   0.0000       0.481692        13.1075 
  50   0.0000       0.529764        14.4156 
  51   0.0000       0.549238        14.9455 
  52   0.0000       0.579473        15.7683 
  53   0.0000       0.602913        16.4061 
  54   0.0000       0.628430        17.1005 
  55   0.0000       0.643168        17.5015 
  56   0.0000       0.686261        18.6741 
  57   0.0000       0.720673        19.6105 
  58   0.0000       0.782934        21.3047 
  59   0.0000       0.797918        21.7124 

                    ********************************
                    * MULLIKEN POPULATION ANALYSIS *
                    ********************************

-----------------------
MULLIKEN ATOMIC CHARGES
-----------------------
   0 C :   -0.004532
   1 C :   -0.076235
   2 C :   -0.076887
   3 C :   -0.004529
   4 C :   -0.076237
   5 C :   -0.076886
   6 H :    0.077303
   7 H :    0.078916
   8 H :    0.077304
   9 H :    0.078917
  10 C :   -0.076211
  11 C :   -0.154031
  12 H :    0.076580
  13 H :    0.079022
  14 H :    0.076074
  15 C :   -0.076209
  16 C :   -0.154035
  17 H :    0.076577
  18 H :    0.079024
  19 H :    0.076073
Sum of atomic charges:   -0.0000000

--------------------------------
MULLIKEN REDUCED ORBITAL CHARGES
--------------------------------
  0 C s       :     3.136842  s :     3.136842
      pz      :     0.928818  p :     2.867690
      px      :     0.945375
      py      :     0.993497
  1 C s       :     3.151001  s :     3.151001
      pz      :     0.956063  p :     2.925234
      px      :     0.967834
      py      :     1.001336
  2 C s       :     3.148637  s :     3.148637
      pz      :     0.955525  p :     2.928250
      px      :     0.971718
      py      :     1.001007
  3 C s       :     3.136843  s :     3.136843
      pz      :     0.928816  p :     2.867686
      px      :     0.945375
      py      :     0.993494
  4 C s       :     3.151003  s :     3.151003
      pz      :     0.956059  p :     2.925234
      px      :     0.967833
      py      :     1.001341
  5 C s       :     3.148642  s :     3.148642
      pz      :     0.955521  p :     2.928244
      px      :     0.971715
      py      :     1.001007
  6 H s       :     0.922697  s :     0.922697
  7 H s       :     0.921084  s :     0.921084
  8 H s       :     0.922696  s :     0.922696
  9 H s       :     0.921083  s :     0.921083
 10 C s       :     3.153714  s :     3.153714
      pz      :     0.934907  p :     2.922496
      px      :     0.989335
      py      :     0.998254
 11 C s       :     3.168766  s :     3.168766
      pz      :     0.992159  p :     2.985264
      px      :     0.987204
      py      :     1.005901
 12 H s       :     0.923420  s :     0.923420
 13 H s       :     0.920978  s :     0.920978
 14 H s       :     0.923926  s :     0.923926
 15 C s       :     3.153714  s :     3.153714
      pz      :     0.934905  p :     2.922495
      px      :     0.989336
      py      :     0.998255
 16 C s       :     3.168766  s :     3.168766
      pz      :     0.992155  p :     2.985269
      px      :     0.987208
      py      :     1.005906
 17 H s       :     0.923423  s :     0.923423
 18 H s       :     0.920976  s :     0.920976
 19 H s       :     0.923927  s :     0.923927

------------------------
MULLIKEN OVERLAP CHARGES
------------------------
B(  0-C ,  1-C ) :   0.9775 B(  0-C ,  2-C ) :  -0.0539 B(  0-C ,  4-C ) :  -0.0543 
B(  0-C ,  5-C ) :   0.9765 B(  0-C ,  6-H ) :  -0.0506 B(  0-C , 15-C ) :   0.8236 
B(  0-C , 17-H ) :  -0.0521 B(  1-C ,  2-C ) :   1.0178 B(  1-C ,  3-C ) :  -0.0543 
B(  1-C ,  5-C ) :  -0.0614 B(  1-C ,  6-H ) :   0.7757 B(  1-C ,  7-H ) :  -0.0505 
B(  1-C , 15-C ) :  -0.0575 B(  2-C ,  3-C ) :   0.9765 B(  2-C ,  4-C ) :  -0.0614 
B(  2-C ,  6-H ) :  -0.0504 B(  2-C ,  7-H ) :   0.7757 B(  3-C ,  4-C ) :   0.9775 
B(  3-C ,  5-C ) :  -0.0539 B(  3-C ,  8-H ) :  -0.0506 B(  3-C , 10-C ) :   0.8236 
B(  3-C , 12-H ) :  -0.0521 B(  4-C ,  5-C ) :   1.0178 B(  4-C ,  8-H ) :   0.7757 
B(  4-C ,  9-H ) :  -0.0505 B(  4-C , 10-C ) :  -0.0574 B(  5-C ,  8-H ) :  -0.0504 
B(  5-C ,  9-H ) :   0.7757 B( 10-C , 11-C ) :   1.1722 B( 10-C , 12-H ) :   0.7724 
B( 11-C , 12-H ) :  -0.0553 B( 11-C , 13-H ) :   0.7764 B( 11-C , 14-H ) :   0.7718 
B( 15-C , 16-C ) :   1.1722 B( 15-C , 17-H ) :   0.7724 B( 16-C , 17-H ) :  -0.0553 
B( 16-C , 18-H ) :   0.7764 B( 16-C , 19-H ) :   0.7718 


                     *******************************
                     * LOEWDIN POPULATION ANALYSIS *
                     *******************************

----------------------
LOEWDIN ATOMIC CHARGES
----------------------
   0 C :    0.003595
   1 C :   -0.043628
   2 C :   -0.044039
   3 C :    0.003597
   4 C :   -0.043630
   5 C :   -0.044037
   6 H :    0.041671
   7 H :    0.043462
   8 H :    0.041672
   9 H :    0.043462
  10 C :   -0.038864
  11 C :   -0.090979
  12 H :    0.040953
  13 H :    0.044818
  14 H :    0.043012
  15 C :   -0.038863
  16 C :   -0.090982
  17 H :    0.040950
  18 H :    0.044818
  19 H :    0.043011

-------------------------------
LOEWDIN REDUCED ORBITAL CHARGES
-------------------------------
  0 C s       :     3.032328  s :     3.032328
      pz      :     0.974587  p :     2.964078
      px      :     0.996914
      py      :     0.992576
  1 C s       :     3.031965  s :     3.031965
      pz      :     1.005581  p :     3.011663
      px      :     1.004414
      py      :     1.001668
  2 C s       :     3.029380  s :     3.029380
      pz      :     1.005188  p :     3.014659
      px      :     1.008063
      py      :     1.001408
  3 C s       :     3.032329  s :     3.032329
      pz      :     0.974586  p :     2.964074
      px      :     0.996915
      py      :     0.992573
  4 C s       :     3.031967  s :     3.031967
      pz      :     1.005577  p :     3.011663
      px      :     1.004414
      py      :     1.001673
  5 C s       :     3.029384  s :     3.029384
      pz      :     1.005184  p :     3.014652
      px      :     1.008060
      py      :     1.001408
  6 H s       :     0.958329  s :     0.958329
  7 H s       :     0.956538  s :     0.956538
  8 H s       :     0.958328  s :     0.958328
  9 H s       :     0.956538  s :     0.956538
 10 C s       :     3.033393  s :     3.033393
      pz      :     0.982707  p :     3.005471
      px      :     1.025140
      py      :     0.997623
 11 C s       :     3.033009  s :     3.033009
      pz      :     1.025083  p :     3.057970
      px      :     1.026166
      py      :     1.006721
 12 H s       :     0.959047  s :     0.959047
 13 H s       :     0.955182  s :     0.955182
 14 H s       :     0.956988  s :     0.956988
 15 C s       :     3.033393  s :     3.033393
      pz      :     0.982708  p :     3.005469
      px      :     1.025137
      py      :     0.997624
 16 C s       :     3.033008  s :     3.033008
      pz      :     1.025085  p :     3.057974
      px      :     1.026164
      py      :     1.006725
 17 H s       :     0.959050  s :     0.959050
 18 H s       :     0.955182  s :     0.955182
 19 H s       :     0.956989  s :     0.956989

---------------------------------
LOEWDIN BOND ORDERS (THRESH 0.05)
---------------------------------
B(  0-C ,  1-C ) :   1.3763 B(  0-C ,  3-C ) :   0.0988 B(  0-C ,  5-C ) :   1.3787 
B(  0-C , 15-C ) :   1.0837 B(  1-C ,  2-C ) :   1.4783 B(  1-C ,  4-C ) :   0.0991 
B(  1-C ,  6-H ) :   0.9741 B(  2-C ,  3-C ) :   1.3787 B(  2-C ,  5-C ) :   0.1021 
B(  2-C ,  7-H ) :   0.9718 B(  3-C ,  4-C ) :   1.3763 B(  3-C , 10-C ) :   1.0836 
B(  4-C ,  5-C ) :   1.4783 B(  4-C ,  8-H ) :   0.9741 B(  5-C ,  9-H ) :   0.9718 
B( 10-C , 11-C ) :   1.9130 B( 10-C , 12-H ) :   0.9714 B( 11-C , 13-H ) :   0.9815 
B( 11-C , 14-H ) :   0.9779 B( 15-C , 16-C ) :   1.9130 B( 15-C , 17-H ) :   0.9714 
B( 16-C , 18-H ) :   0.9815 B( 16-C , 19-H ) :   0.9779 

------------------------------------------
LOEWDIN REDUCED ORBITAL POPULATIONS PER MO
-------------------------------------------
THRESHOLD FOR PRINTING IS 0.1%
                      0         1         2         3         4         5   
                 -10.01620 -10.01615 -10.00415 -10.00414 -10.00287 -10.00286
                   2.00000   2.00000   2.00000   2.00000   2.00000   2.00000
                  --------  --------  --------  --------  --------  --------
 0 C  s              49.6      50.0       0.0       0.1       0.1       0.0
 1 C  s               0.0       0.0       0.0       0.0       4.1      22.6
 2 C  s               0.0       0.0       0.0       0.0      13.8      59.3
 3 C  s              50.0      49.6       0.1       0.0       0.1       0.0
 4 C  s               0.0       0.0       0.0       0.0      21.2       5.5
 5 C  s               0.0       0.0       0.0       0.0      60.7      12.4
10 C  s               0.1       0.1      93.6       6.1       0.0       0.0
15 C  s               0.1       0.1       6.1      93.6       0.0       0.0

                      6         7         8         9        10        11   
                 -10.00215 -10.00201  -9.98857  -9.98857  -0.80578  -0.75023
                   2.00000   2.00000   2.00000   2.00000   2.00000   2.00000
                  --------  --------  --------  --------  --------  --------
 0 C  s               0.0       0.1       0.0       0.0      14.5      12.3
 0 C  pz              0.0       0.0       0.0       0.0       0.8       0.6
 1 C  s              36.9      36.2       0.0       0.0      11.9       1.7
 1 C  pz              0.0       0.0       0.0       0.0       0.2       1.3
 1 C  px              0.0       0.0       0.0       0.0       1.2       0.5
 2 C  s              12.2      14.5       0.0       0.0      11.9       2.1
 2 C  pz              0.0       0.0       0.0       0.0       0.3       1.3
 2 C  px              0.0       0.0       0.0       0.0       1.2       0.5
 3 C  s               0.0       0.1       0.0       0.0      14.5      12.3
 3 C  pz              0.0       0.0       0.0       0.0       0.8       0.6
 4 C  s              38.1      35.0       0.0       0.0      11.9       1.7
 4 C  pz              0.0       0.0       0.0       0.0       0.2       1.3
 4 C  px              0.0       0.0       0.0       0.0       1.2       0.5
 5 C  s              12.6      14.0       0.0       0.0      11.9       2.1
 5 C  pz              0.0       0.0       0.0       0.0       0.3       1.3
 5 C  px              0.0       0.0       0.0       0.0       1.2       0.5
 6 H  s               0.0       0.0       0.0       0.0       1.3       0.4
 7 H  s               0.0       0.0       0.0       0.0       1.3       0.5
 8 H  s               0.0       0.0       0.0       0.0       1.3       0.4
 9 H  s               0.0       0.0       0.0       0.0       1.3       0.5
10 C  s               0.0       0.0       0.0       0.0       3.2      14.8
10 C  pz              0.0       0.0       0.0       0.0       0.5       0.1
10 C  px              0.0       0.0       0.0       0.0       0.0       0.4
11 C  s               0.0       0.0      99.8       0.1       0.8       7.5
11 C  pz              0.0       0.0       0.0       0.0       0.2       0.7
11 C  px              0.0       0.0       0.0       0.0       0.1       0.8
12 H  s               0.0       0.0       0.0       0.0       0.4       2.3
13 H  s               0.0       0.0       0.0       0.0       0.1       1.0
14 H  s               0.0       0.0       0.0       0.0       0.1       1.2
15 C  s               0.0       0.0       0.0       0.0       3.2      14.8
15 C  pz              0.0       0.0       0.0       0.0       0.5       0.1
15 C  px              0.0       0.0       0.0       0.0       0.0       0.4
16 C  s               0.0       0.0       0.1      99.8       0.8       7.5
16 C  pz              0.0       0.0       0.0       0.0       0.2       0.7
16 C  px              0.0       0.0       0.0       0.0       0.1       0.8
17 H  s               0.0       0.0       0.0       0.0       0.4       2.3
18 H  s               0.0       0.0       0.0       0.0       0.1       1.0
19 H  s               0.0       0.0       0.0       0.0       0.1       1.2

                     12        13        14        15        16        17   
                  -0.71421  -0.69604  -0.66378  -0.58499  -0.55521  -0.52800
                   2.00000   2.00000   2.00000   2.00000   2.00000   2.00000
                  --------  --------  --------  --------  --------  --------
 0 C  s               0.0       0.1       9.6       4.4       2.4       0.1
 0 C  pz              3.6       0.0       1.0       2.3       0.3       4.6
 0 C  px              0.0       5.8       0.0       2.9       9.0       0.2
 1 C  s               2.1      18.1       1.7       0.0      10.1       2.2
 1 C  pz              0.6       1.0       2.3       6.1       0.7       0.0
 1 C  px              0.0       0.1       0.9       0.8       1.6       0.0
 2 C  s               1.8      15.0       5.3       5.5       2.8       0.7
 2 C  pz              0.8       1.7       1.1       0.3       8.2       1.6
 2 C  px              0.0       0.3       0.6       1.1       0.7       0.1
 3 C  s               0.0       0.1       9.6       4.4       2.4       0.1
 3 C  pz              3.6       0.0       1.0       2.3       0.3       4.6
 3 C  px              0.0       5.8       0.0       2.9       9.0       0.2
 4 C  s               2.1      18.1       1.7       0.0      10.1       2.2
 4 C  pz              0.6       1.0       2.3       6.1       0.7       0.0
 4 C  px              0.0       0.1       0.9       0.8       1.6       0.0
 5 C  s               1.8      15.0       5.3       5.5       2.8       0.7
 5 C  pz              0.8       1.7       1.1       0.3       8.2       1.6
 5 C  px              0.0       0.3       0.6       1.1       0.7       0.1
 6 H  s               0.2       3.9       0.4       0.1       6.9       0.6
 7 H  s               0.1       3.3       1.0       3.0       1.7       0.7
 8 H  s               0.2       3.9       0.4       0.1       6.9       0.6
 9 H  s               0.1       3.3       1.0       3.0       1.7       0.7
10 C  s              14.9       0.0       2.5       2.7       0.1       8.2
10 C  pz              0.8       0.1       4.7       3.5       1.8       0.1
10 C  px              1.0       0.3       1.1       2.8       0.3       3.6
11 C  s              14.8       0.2      12.0       6.3       1.3       5.7
11 C  pz              0.6       0.0       0.0       0.4       0.7       1.2
11 C  px              1.1       0.0       0.4       0.6       0.0       4.6
12 H  s               2.6       0.0       0.5       1.7       0.3       6.4
13 H  s               2.5       0.0       3.0       2.7       1.1       3.6
14 H  s               2.4       0.1       2.2       3.0       0.1       5.8
15 C  s              14.9       0.0       2.5       2.7       0.1       8.2
15 C  pz              0.8       0.1       4.7       3.5       1.8       0.1
15 C  px              1.0       0.3       1.1       2.8       0.3       3.6
16 C  s              14.8       0.2      12.0       6.3       1.3       5.7
16 C  pz              0.6       0.0       0.0       0.4       0.7       1.2
16 C  px              1.1       0.0       0.4       0.6       0.0       4.6
17 H  s               2.6       0.0       0.5       1.7       0.3       6.4
18 H  s               2.5       0.0       3.0       2.7       1.1       3.6
19 H  s               2.4       0.1       2.2       3.0       0.1       5.8

                     18        19        20        21        22        23   
                  -0.50647  -0.45372  -0.43563  -0.40694  -0.39425  -0.39248
                   2.00000   2.00000   2.00000   2.00000   2.00000   2.00000
                  --------  --------  --------  --------  --------  --------
 0 C  s               2.0       0.9       0.4       3.5       0.4       0.3
 0 C  pz              3.7       3.4       2.2       0.0       4.8       0.0
 0 C  px              0.4       0.1       3.6       1.7       5.6       0.0
 1 C  s               0.1       0.3       0.4       1.8       0.0       0.4
 1 C  pz              0.7       4.7       6.0       0.1       2.1       0.9
 1 C  px              8.1       2.3       0.0       8.7       0.0       0.0
 2 C  s               2.5       0.2       1.4       1.6       0.1       0.4
 2 C  pz              0.0       2.5       2.2       4.2       1.4       2.6
 2 C  px              9.1       2.0       1.2       3.6       9.0       0.6
 3 C  s               2.0       0.9       0.4       3.5       0.4       0.3
 3 C  pz              3.7       3.4       2.2       0.0       4.8       0.0
 3 C  px              0.4       0.1       3.6       1.7       5.6       0.0
 4 C  s               0.1       0.3       0.4       1.8       0.0       0.4
 4 C  pz              0.7       4.7       6.0       0.1       2.1       0.9
 4 C  px              8.1       2.3       0.0       8.7       0.0       0.0
 5 C  s               2.5       0.2       1.4       1.6       0.1       0.4
 5 C  pz              0.0       2.5       2.2       4.2       1.4       2.6
 5 C  px              9.1       2.0       1.2       3.6       9.0       0.6
 6 H  s               2.0       3.2       1.7       7.7       0.2       0.0
 7 H  s               5.9       1.5       0.6       8.1       2.6       1.9
 8 H  s               2.0       3.2       1.7       7.7       0.2       0.0
 9 H  s               5.9       1.5       0.6       8.1       2.6       1.9
10 C  s               2.7       1.2       0.2       0.1       0.0       0.4
10 C  pz              0.0       7.4       3.5       2.3       4.5       0.2
10 C  px              1.0       1.5       7.1       0.5       0.7      10.6
11 C  s               2.4       0.3       0.1       0.2       0.0       0.0
11 C  pz              1.0       0.4       9.0       2.4       1.1      17.9
11 C  px              1.9       8.4       0.6       1.6       9.5       0.6
12 H  s               2.6       4.0       3.9       0.1       0.0       3.1
13 H  s               2.0       0.1       5.2       1.7       1.0      10.0
14 H  s               1.9       5.6       0.8       0.3       6.8       0.1
15 C  s               2.7       1.2       0.2       0.1       0.0       0.4
15 C  pz              0.0       7.4       3.5       2.3       4.5       0.2
15 C  px              1.0       1.5       7.2       0.5       0.7      10.6
16 C  s               2.4       0.3       0.1       0.2       0.0       0.0
16 C  pz              1.0       0.4       9.0       2.4       1.1      17.9
16 C  px              1.9       8.4       0.6       1.6       9.5       0.6
17 H  s               2.6       4.0       3.9       0.1       0.0       3.1
18 H  s               2.0       0.1       5.2       1.7       1.0      10.0
19 H  s               1.9       5.6       0.8       0.3       6.8       0.1

                     24        25        26        27        28        29   
                  -0.37026  -0.34754  -0.34366  -0.32073  -0.30759  -0.28913
                   2.00000   2.00000   2.00000   2.00000   2.00000   2.00000
                  --------  --------  --------  --------  --------  --------
 0 C  s               0.0       0.0       0.5       0.0       0.1       0.0
 0 C  pz              0.6       3.1       0.0       0.0       8.2       7.3
 0 C  px              1.3       5.2       1.0       0.0       0.3       3.4
 0 C  py              0.0       0.0       0.0      17.2       0.0       0.0
 1 C  s               0.5       0.2       0.1       0.0       0.0       0.0
 1 C  pz              5.6       5.7       3.3       0.0       0.3       7.6
 1 C  px             12.0       2.6       1.5       0.0       0.4       3.6
 1 C  py              0.0       0.0       0.0      13.5       0.0       0.0
 2 C  s               0.2       0.0       0.0       0.0       0.1       0.0
 2 C  pz              5.4       5.7       3.0       0.0       0.1       5.9
 2 C  px              7.5       0.2       0.2       0.0       2.5       1.7
 2 C  py              0.0       0.0       0.0      13.4       0.0       0.0
 3 C  s               0.0       0.0       0.5       0.0       0.1       0.0
 3 C  pz              0.6       3.1       0.0       0.0       8.2       7.3
 3 C  px              1.3       5.2       1.0       0.0       0.3       3.4
 3 C  py              0.0       0.0       0.0      17.2       0.0       0.0
 4 C  s               0.5       0.2       0.1       0.0       0.0       0.0
 4 C  pz              5.6       5.8       3.3       0.0       0.3       7.6
 4 C  px             12.0       2.6       1.5       0.0       0.4       3.6
 4 C  py              0.0       0.0       0.0      13.5       0.0       0.0
 5 C  s               0.2       0.0       0.0       0.0       0.1       0.0
 5 C  pz              5.4       5.7       3.0       0.0       0.1       5.9
 5 C  px              7.5       0.2       0.2       0.0       2.5       1.7
 5 C  py              0.0       0.0       0.0      13.4       0.0       0.0
 6 H  s               8.6       0.0       3.1       0.0       0.2       0.0
 7 H  s               6.3       0.3       0.0       0.0       0.3       6.3
 8 H  s               8.6       0.0       3.1       0.0       0.2       0.0
 9 H  s               6.3       0.3       0.0       0.0       0.3       6.3
10 C  s               0.0       0.0       0.4       0.0       0.0       0.4
10 C  pz              0.7       3.0       0.3       0.0       5.5       8.0
10 C  px              0.0       7.2       6.7       0.0       4.7       0.0
10 C  py              0.0       0.0       0.0       4.7       0.0       0.0
11 C  s               0.0       0.1       0.0       0.0       0.0       0.0
11 C  pz              0.1       7.0       1.6       0.0       4.0       2.5
11 C  px              0.9       3.3      11.4       0.0       4.1       0.2
11 C  py              0.0       0.0       0.0       1.3       0.0       0.0
12 H  s               0.0       2.8       5.1       0.0       7.8       0.5
13 H  s               0.0       3.2       2.5       0.0       5.2       2.1
14 H  s               0.4       0.3       9.1       0.0       6.1       0.3
15 C  s               0.0       0.0       0.4       0.0       0.0       0.4
15 C  pz              0.7       3.0       0.3       0.0       5.5       8.0
15 C  px              0.0       7.2       6.8       0.0       4.7       0.0
15 C  py              0.0       0.0       0.0       4.7       0.0       0.0
16 C  s               0.0       0.1       0.0       0.0       0.0       0.0
16 C  pz              0.1       7.0       1.6       0.0       4.0       2.5
16 C  px              0.9       3.3      11.5       0.0       4.1       0.2
16 C  py              0.0       0.0       0.0       1.3       0.0       0.0
17 H  s               0.0       2.8       5.1       0.0       7.8       0.5
18 H  s               0.0       3.2       2.5       0.0       5.2       2.1
19 H  s               0.4       0.3       9.1       0.0       6.1       0.3

                     30        31        32        33        34        35   
                  -0.28376  -0.25976  -0.20864  -0.19131  -0.14933   0.04112
                   2.00000   2.00000   2.00000   2.00000   2.00000   0.00000
                  --------  --------  --------  --------  --------  --------
 0 C  pz              2.2       0.0       0.0       0.0       0.0       0.0
 0 C  px              9.1       0.0       0.0       0.0       0.0       0.0
 0 C  py              0.0      16.3       0.0       0.0      16.2      16.2
 1 C  pz              0.8       0.0       0.0       0.0       0.0       0.0
 1 C  px              5.8       0.0       0.0       0.0       0.0       0.0
 1 C  py              0.0       2.3       3.9      25.3       5.2       4.5
 2 C  pz              2.2       0.0       0.0       0.0       0.0       0.0
 2 C  px              8.3       0.0       0.0       0.0       0.0       0.0
 2 C  py              0.0       2.4       3.8      24.7       5.7       6.4
 3 C  pz              2.2       0.0       0.0       0.0       0.0       0.0
 3 C  px              9.1       0.0       0.0       0.0       0.0       0.0
 3 C  py              0.0      16.3       0.0       0.0      16.2      16.2
 4 C  pz              0.8       0.0       0.0       0.0       0.0       0.0
 4 C  px              5.8       0.0       0.0       0.0       0.0       0.0
 4 C  py              0.0       2.3       3.9      25.3       5.2       4.5
 5 C  pz              2.2       0.0       0.0       0.0       0.0       0.0
 5 C  px              8.3       0.0       0.0       0.0       0.0       0.0
 5 C  py              0.0       2.4       3.8      24.7       5.7       6.4
 6 H  s               7.4       0.0       0.0       0.0       0.0       0.0
 7 H  s               2.6       0.0       0.0       0.0       0.0       0.0
 8 H  s               7.4       0.0       0.0       0.0       0.0       0.0
 9 H  s               2.6       0.0       0.0       0.0       0.0       0.0
10 C  pz              2.1       0.0       0.0       0.0       0.0       0.0
10 C  px              1.7       0.0       0.0       0.0       0.0       0.0
10 C  py              0.0      19.1      20.8       0.0       5.4       5.6
11 C  pz              0.4       0.0       0.0       0.0       0.0       0.0
11 C  px              1.3       0.0       0.0       0.0       0.0       0.0
11 C  py              0.0      10.0      21.5       0.0      17.6      17.2
12 H  s               3.6       0.0       0.0       0.0       0.0       0.0
13 H  s               0.8       0.0       0.0       0.0       0.0       0.0
14 H  s               1.4       0.0       0.0       0.0       0.0       0.0
15 C  pz              2.1       0.0       0.0       0.0       0.0       0.0
15 C  px              1.7       0.0       0.0       0.0       0.0       0.0
15 C  py              0.0      19.1      20.8       0.0       5.4       5.6
16 C  pz              0.4       0.0       0.0       0.0       0.0       0.0
16 C  px              1.3       0.0       0.0       0.0       0.0       0.0
16 C  py              0.0      10.0      21.5       0.0      17.6      17.2
17 H  s               3.6       0.0       0.0       0.0       0.0       0.0
18 H  s               0.8       0.0       0.0       0.0       0.0       0.0
19 H  s               1.4       0.0       0.0       0.0       0.0       0.0

                     36        37        38        39        40        41   
                   0.09410   0.11434   0.18585   0.27614   0.33572   0.34420
                   0.00000   0.00000   0.00000   0.00000   0.00000   0.00000
                  --------  --------  --------  --------  --------  --------
 0 C  s               0.0       0.0       0.0       0.0       4.4       1.0
 0 C  pz              0.0       0.0       0.0       0.0       3.5       1.6
 0 C  px              0.0       0.0       0.0       0.0       0.1       3.0
 0 C  py              0.1       0.0      16.5      17.5       0.0       0.0
 1 C  s               0.0       0.0       0.0       0.0       0.9       0.0
 1 C  pz              0.0       0.0       0.0       0.0       0.4       0.2
 1 C  px              0.0       0.0       0.0       0.0       3.4       5.2
 1 C  py             26.2       4.3       1.9      12.9       0.0       0.0
 2 C  s               0.0       0.0       0.0       0.0       2.2       0.2
 2 C  pz              0.0       0.0       0.0       0.0       0.3       0.2
 2 C  px              0.0       0.0       0.0       0.0       1.9       3.6
 2 C  py             23.7       4.0       2.7      13.1       0.0       0.0
 3 C  s               0.0       0.0       0.0       0.0       4.4       1.0
 3 C  pz              0.0       0.0       0.0       0.0       3.4       1.6
 3 C  px              0.0       0.0       0.0       0.0       0.1       3.0
 3 C  py              0.1       0.0      16.5      17.5       0.0       0.0
 4 C  s               0.0       0.0       0.0       0.0       0.9       0.0
 4 C  pz              0.0       0.0       0.0       0.0       0.4       0.2
 4 C  px              0.0       0.0       0.0       0.0       3.4       5.2
 4 C  py             26.2       4.3       1.9      12.9       0.0       0.0
 5 C  s               0.0       0.0       0.0       0.0       2.2       0.2
 5 C  pz              0.0       0.0       0.0       0.0       0.3       0.2
 5 C  px              0.0       0.0       0.0       0.0       1.8       3.6
 5 C  py             23.7       4.0       2.7      13.1       0.0       0.0
 6 H  s               0.0       0.0       0.0       0.0       6.7       4.2
 7 H  s               0.0       0.0       0.0       0.0       6.8       2.9
 8 H  s               0.0       0.0       0.0       0.0       6.7       4.2
 9 H  s               0.0       0.0       0.0       0.0       6.8       2.9
10 C  s               0.0       0.0       0.0       0.0       1.8       0.0
10 C  pz              0.0       0.0       0.0       0.0       6.5       3.3
10 C  px              0.0       0.0       0.0       0.0       1.5       4.0
10 C  py              0.0      20.6      19.0       4.9       0.0       0.0
11 C  s               0.0       0.0       0.0       0.0       1.1       0.0
11 C  pz              0.0       0.0       0.0       0.0       1.4       2.0
11 C  px              0.0       0.0       0.0       0.0       0.5       3.2
11 C  py              0.0      21.0      10.0       1.5       0.0       0.0
12 H  s               0.0       0.0       0.0       0.0       1.1       7.7
13 H  s               0.0       0.0       0.0       0.0       5.0       3.3
14 H  s               0.0       0.0       0.0       0.0       0.6       4.3
15 C  s               0.0       0.0       0.0       0.0       1.8       0.0
15 C  pz              0.0       0.0       0.0       0.0       6.5       3.3
15 C  px              0.0       0.0       0.0       0.0       1.5       4.0
15 C  py              0.0      20.6      19.0       4.9       0.0       0.0
16 C  s               0.0       0.0       0.0       0.0       1.1       0.0
16 C  pz              0.0       0.0       0.0       0.0       1.4       2.0
16 C  px              0.0       0.0       0.0       0.0       0.5       3.2
16 C  py              0.0      21.0      10.0       1.5       0.0       0.0
17 H  s               0.0       0.0       0.0       0.0       1.1       7.7
18 H  s               0.0       0.0       0.0       0.0       5.0       3.3
19 H  s               0.0       0.0       0.0       0.0       0.6       4.3

                     42        43        44        45        46        47   
                   0.38287   0.38483   0.41438   0.41533   0.43014   0.44302
                   0.00000   0.00000   0.00000   0.00000   0.00000   0.00000
                  --------  --------  --------  --------  --------  --------
 0 C  s               2.5       0.4       2.1       4.4       0.4      12.3
 0 C  pz              8.2       0.1       0.5       0.0       2.4       0.0
 0 C  px              1.4       0.5       2.7       0.6       0.3       0.0
 1 C  s               0.4       3.6       4.4       3.6       2.7       5.1
 1 C  pz              1.9       0.6       0.6       0.0       5.2       2.5
 1 C  px              1.4       0.0       0.2       0.6       2.8       0.0
 2 C  s               0.0       0.5       8.0       7.6       0.0       3.7
 2 C  pz              3.2       1.1       0.0       0.8       1.0       2.6
 2 C  px              4.0       1.8       0.0       0.1       1.4       1.2
 3 C  s               2.5       0.4       2.2       4.4       0.4      12.3
 3 C  pz              8.2       0.1       0.5       0.0       2.4       0.0
 3 C  px              1.4       0.5       2.8       0.5       0.3       0.0
 4 C  s               0.4       3.6       4.3       3.6       2.7       5.1
 4 C  pz              1.9       0.6       0.6       0.0       5.2       2.5
 4 C  px              1.4       0.0       0.2       0.6       2.8       0.0
 5 C  s               0.0       0.5       7.9       7.7       0.0       3.7
 5 C  pz              3.2       1.1       0.0       0.8       1.0       2.6
 5 C  px              4.0       1.8       0.0       0.1       1.4       1.2
 6 H  s               0.5       2.9       1.7       3.6      12.6       3.2
 7 H  s               6.6       3.4       1.5       4.1       0.1       1.2
 8 H  s               0.5       2.9       1.6       3.7      12.5       3.2
 9 H  s               6.5       3.4       1.5       4.2       0.1       1.2
10 C  s               6.6       3.2       0.7       1.6       4.8       6.0
10 C  pz              5.2       0.6       1.4       0.6       0.0       0.2
10 C  px              0.0       4.3       1.0       1.2       2.0       0.8
11 C  s               1.6       0.2       9.7       6.7       0.5       3.2
11 C  pz              1.2       3.1       0.1       0.3       3.3       0.2
11 C  px              0.1       3.1       2.4       2.8       0.0       0.0
12 H  s               0.7      12.1       1.0       1.5       6.4       4.4
13 H  s               4.4       2.5       3.4       3.2       4.0       2.2
14 H  s               0.0       5.9       8.9       6.8       0.1       1.4
15 C  s               6.6       3.3       0.7       1.6       4.8       6.0
15 C  pz              5.3       0.6       1.4       0.6       0.0       0.2
15 C  px              0.0       4.3       1.0       1.2       2.0       0.8
16 C  s               1.6       0.2       9.6       6.8       0.5       3.2
16 C  pz              1.2       3.1       0.1       0.3       3.3       0.2
16 C  px              0.1       3.1       2.3       2.8       0.0       0.0
17 H  s               0.7      12.2       1.0       1.5       6.4       4.4
18 H  s               4.4       2.5       3.3       3.2       4.0       2.2
19 H  s               0.0       5.9       8.8       6.9       0.1       1.4

                     48        49        50        51        52        53   
                   0.45629   0.48169   0.52976   0.54924   0.57947   0.60291
                   0.00000   0.00000   0.00000   0.00000   0.00000   0.00000
                  --------  --------  --------  --------  --------  --------
[...]
16 C  s               0.0       0.0       0.0       0.0       1.1       0.0
16 C  pz              0.0       0.3       0.1       0.0       1.2       1.6
16 C  px              0.0      15.6       7.4       1.1       0.1       0.7
16 C  py              0.0       5.2       2.4       0.4       0.5       2.9
17 H  s               0.0       0.0       0.0       0.0       1.1       7.7
18 H  s               0.0       0.0       0.0       0.0       4.9       3.3
19 H  s               0.0       0.0       0.0       0.0       0.6       4.3

                     42        43        44        45        46        47   
                   0.38280   0.38491   0.41438   0.41538   0.43016   0.44286
                   0.00000   0.00000   0.00000   0.00000   0.00000   0.00000
                  --------  --------  --------  --------  --------  --------
 0 C  s               2.5       0.4       2.2       4.3       0.4      12.3
 0 C  pz              8.5       0.1       0.7       0.0       2.2       0.0
 0 C  px              0.6       0.1       0.8       0.1       0.0       0.0
 0 C  py              0.5       0.3       1.8       0.4       0.4       0.0
 1 C  s               0.4       3.7       4.2       3.7       2.6       5.0
 1 C  pz              2.2       0.6       0.7       0.0       4.6       2.5
 1 C  px              0.5       0.0       0.1       0.1       0.5       0.0
 1 C  py              0.8       0.0       0.1       0.4       2.9       0.0
 2 C  s               0.0       0.5       7.7       7.9       0.0       3.7
 2 C  pz              3.6       1.3       0.0       0.8       0.8       2.3
 2 C  px              1.2       0.6       0.0       0.0       0.3       0.2
 2 C  py              2.3       1.1       0.0       0.0       1.3       1.3
 3 C  s               2.5       0.4       2.1       4.5       0.4      12.3
 3 C  pz              8.5       0.1       0.7       0.0       2.2       0.0
 3 C  px              0.6       0.1       0.7       0.1       0.0       0.0
 3 C  py              0.5       0.3       1.8       0.4       0.4       0.0
 4 C  s               0.5       3.6       4.5       3.5       2.7       5.0
 4 C  pz              2.1       0.6       0.7       0.0       4.6       2.5
 4 C  px              0.5       0.0       0.1       0.1       0.5       0.0
 4 C  py              0.8       0.0       0.1       0.4       2.9       0.0
 5 C  s               0.0       0.5       8.2       7.4       0.0       3.7
 5 C  pz              3.7       1.2       0.0       0.8       0.8       2.3
 5 C  px              1.2       0.5       0.0       0.0       0.3       0.2
 5 C  py              2.3       1.1       0.0       0.0       1.3       1.3
 6 H  s               0.5       3.0       1.6       3.7      12.5       3.2
 7 H  s               6.5       3.5       1.4       4.3       0.1       1.2
 8 H  s               0.5       2.9       1.7       3.6      12.5       3.2
 9 H  s               6.6       3.3       1.6       4.1       0.1       1.2
10 C  s               6.6       3.3       0.7       1.6       4.9       6.0
10 C  pz              5.2       0.3       1.5       0.8       0.1       0.2
10 C  px              0.0       1.0       0.3       0.3       0.5       0.2
10 C  py              0.1       3.5       0.5       0.7       1.5       0.5
11 C  s               1.6       0.2       9.4       6.9       0.5       3.2
11 C  pz              1.1       2.6       0.1       0.4       3.3       0.2
11 C  px              0.0       0.6       0.6       0.8       0.0       0.0
11 C  py              0.2       3.0       1.6       1.9       0.1       0.0
12 H  s               0.7      12.2       0.9       1.5       6.5       4.4
13 H  s               4.4       2.4       3.2       3.3       4.0       2.2
14 H  s               0.0       5.9       8.6       7.1       0.1       1.4
15 C  s               6.7       3.2       0.7       1.5       4.9       6.0
15 C  pz              5.1       0.4       1.6       0.7       0.1       0.2
15 C  px              0.0       1.0       0.3       0.3       0.5       0.2
15 C  py              0.1       3.5       0.5       0.7       1.4       0.5
16 C  s               1.6       0.2       9.9       6.5       0.5       3.2
16 C  pz              1.1       2.7       0.1       0.4       3.3       0.2
16 C  px              0.0       0.6       0.6       0.7       0.0       0.0
16 C  py              0.2       3.0       1.7       1.8       0.1       0.0
17 H  s               0.8      12.1       1.0       1.4       6.5       4.4
18 H  s               4.3       2.5       3.4       3.1       4.0       2.2
19 H  s               0.0       5.9       9.1       6.6       0.1       1.4

                     48        49        50        51        52        53   
                   0.45590   0.48148   0.52972   0.54908   0.57936   0.60285
                   0.00000   0.00000   0.00000   0.00000   0.00000   0.00000
                  --------  --------  --------  --------  --------  --------
 0 C  s               2.4       1.1       4.1       0.0       0.0       3.5
 0 C  pz              0.3       0.0      12.6       0.0       0.2       0.0
 0 C  px              0.3       1.0       0.0       2.5       0.3       0.4
 0 C  py              0.7       2.9       0.3       7.9       1.1       1.4
 1 C  s               2.4       9.8       0.1       8.9       0.0       1.2
 1 C  pz              0.6       0.4       0.3       0.4       2.1      14.9
 1 C  px              0.3       0.0       2.0       0.0       1.7       1.3
 1 C  py              0.6       0.2       5.7       0.0       7.0       1.3
 2 C  s               3.1       7.6       2.0       1.6       0.0       7.2
 2 C  pz              0.7       1.1       0.0       7.7       3.9       5.6
 2 C  px              0.4       0.1       0.8       0.0       3.3       0.3
 2 C  py              0.9       0.4       2.4       0.8       7.7       2.3
 3 C  s               2.4       1.1       4.1       0.0       0.0       3.5
 3 C  pz              0.3       0.0      12.6       0.0       0.2       0.0
 3 C  px              0.3       1.0       0.0       2.6       0.3       0.4
 3 C  py              0.7       2.9       0.2       7.9       1.1       1.4
 4 C  s               2.4       9.8       0.1       8.9       0.0       1.2
 4 C  pz              0.6       0.4       0.3       0.4       2.1      14.9
 4 C  px              0.3       0.0       2.0       0.0       1.7       1.3
 4 C  py              0.6       0.2       5.8       0.0       7.0       1.3
 5 C  s               3.1       7.6       2.0       1.6       0.0       7.2
 5 C  pz              0.7       1.1       0.0       7.7       3.9       5.6
 5 C  px              0.4       0.1       0.8       0.0       3.3       0.3
 5 C  py              0.9       0.4       2.4       0.8       7.7       2.3
 6 H  s               0.2       1.3       2.3       2.5       6.3       0.1
 7 H  s               7.3       3.2       0.1       1.3       8.4       1.6
 8 H  s               0.2       1.3       2.3       2.5       6.3       0.1
 9 H  s               7.3       3.2       0.1       1.3       8.4       1.6
10 C  s               3.2       1.1       5.1       0.8       2.3       3.1
10 C  pz              0.4       0.1       0.0       0.0       0.5       0.2
10 C  px              0.0       0.0       0.2       0.6       0.2       0.0
10 C  py              0.2       0.0       0.6       1.8       0.3       0.1
11 C  s              10.2       3.7       0.2       0.1       1.4       0.0
11 C  pz              0.0       4.9       1.1       7.8       2.0       0.1
11 C  px              0.3       0.5       0.7       0.1       0.2       0.6
11 C  py              0.7       0.5       2.8       0.0       0.2       1.7
12 H  s               2.8       0.2       2.6       0.8       0.2       1.6
13 H  s               3.3       7.3       2.0       4.1       0.2       0.0
14 H  s               8.8       2.6       1.9       0.3       0.4       1.3
15 C  s               3.2       1.1       5.1       0.8       2.3       3.1
15 C  pz              0.4       0.1       0.0       0.0       0.5       0.2
15 C  px              0.0       0.0       0.2       0.6       0.2       0.0
15 C  py              0.2       0.0       0.6       1.8       0.3       0.1
16 C  s              10.2       3.7       0.2       0.1       1.4       0.0
16 C  pz              0.0       4.9       1.1       7.8       2.0       0.1
16 C  px              0.3       0.5       0.7       0.1       0.2       0.6
16 C  py              0.7       0.5       2.8       0.0       0.2       1.7
17 H  s               2.8       0.2       2.6       0.8       0.2       1.6
18 H  s               3.3       7.3       2.0       4.1       0.2       0.0
19 H  s               8.8       2.6       1.9       0.3       0.4       1.3

                     54        55        56        57        58        59   
                   0.62840   0.64289   0.68641   0.72060   0.78289   0.79785
                   0.00000   0.00000   0.00000   0.00000   0.00000   0.00000
                  --------  --------  --------  --------  --------  --------
 0 C  s               7.4       0.1       0.3       0.4       0.0       1.5
 0 C  pz              0.1       4.4       4.6       0.2       0.0      12.0
 0 C  px              0.4       0.0       0.5       1.6       3.4       0.0
 0 C  py              1.0       0.3       0.5       4.5      10.8       0.5
 1 C  s               0.2       0.7       0.3       2.0       0.0       2.0
 1 C  pz              0.2       4.9       4.5       0.3       7.5       2.2
 1 C  px              0.5       0.2       0.4       0.4       1.1       1.5
 1 C  py              1.4       1.4       0.4       0.9       1.4       6.3
 2 C  s               0.7       0.8       0.3       0.5       0.0       2.6
 2 C  pz              1.5       3.2       5.9       1.3       5.9       3.0
 2 C  px              0.7       0.1       0.2       0.0       0.7       2.4
 2 C  py              3.0       0.7       0.0       0.0       4.0       5.4
 3 C  s               7.4       0.1       0.3       0.4       0.0       1.5
 3 C  pz              0.1       4.4       4.6       0.2       0.0      12.0
 3 C  px              0.4       0.0       0.5       1.6       3.4       0.0
 3 C  py              1.0       0.3       0.6       4.5      10.8       0.5
 4 C  s               0.2       0.7       0.3       2.0       0.0       2.0
 4 C  pz              0.2       4.9       4.5       0.3       7.5       2.2
 4 C  px              0.5       0.2       0.4       0.4       1.1       1.5
 4 C  py              1.4       1.5       0.4       0.9       1.4       6.3
 5 C  s               0.7       0.8       0.3       0.5       0.0       2.6
 5 C  pz              1.6       3.1       5.9       1.3       5.9       3.0
 5 C  px              0.7       0.1       0.2       0.0       0.7       2.4
 5 C  py              3.0       0.7       0.0       0.0       4.0       5.4
 6 H  s               0.5       1.4       0.0       0.0       0.0       2.1
 7 H  s               0.0       0.1       1.1       0.3       0.1       2.2
 8 H  s               0.5       1.4       0.0       0.0       0.0       2.1
 9 H  s               0.0       0.1       1.1       0.3       0.1       2.2
10 C  s               0.6       1.5       1.6       3.4       0.7       0.2
10 C  pz              7.7       1.8      12.4       4.2       2.0       4.0
10 C  px              0.3       1.8       0.6       3.5       1.7       0.0
10 C  py              2.3       7.1       0.3       8.1       3.8       0.0
11 C  s               0.3       0.8       2.2       4.6       1.6       0.1
11 C  pz              2.8       9.2       0.5       6.9       2.3       0.0
11 C  px              1.5       0.0       2.8       1.9       0.7       0.3
11 C  py              6.4       0.7       7.6       3.4       1.4       1.1
12 H  s               3.5       3.2       0.5       1.0       0.7       0.1
13 H  s               3.3       3.4       0.3       0.4       0.1       0.1
14 H  s               3.9       2.3       2.1       0.0       0.1       0.5
15 C  s               0.6       1.5       1.6       3.4       0.7       0.2
15 C  pz              7.7       1.8      12.4       4.2       2.0       4.0
15 C  px              0.3       1.8       0.6       3.6       1.7       0.0
15 C  py              2.3       7.1       0.3       8.1       3.8       0.0
16 C  s               0.3       0.8       2.2       4.6       1.6       0.1
16 C  pz              2.8       9.2       0.5       6.9       2.2       0.0
16 C  px              1.5       0.0       2.8       2.0       0.8       0.3
16 C  py              6.4       0.7       7.6       3.4       1.4       1.0
17 H  s               3.4       3.2       0.5       1.0       0.7       0.1
18 H  s               3.3       3.4       0.3       0.4       0.1       0.1
19 H  s               3.9       2.3       2.1       0.0       0.1       0.5



                      *****************************
                      * MAYER POPULATION ANALYSIS *
                      *****************************

  NA   - Mulliken gross atomic population
  ZA   - Total nuclear charge
  QA   - Mulliken gross atomic charge
  VA   - Mayer's total valence
  BVA  - Mayer's bonded valence
  FA   - Mayer's free valence

  ATOM       NA         ZA         QA         VA         BVA        FA
  0 C      6.0044     6.0000    -0.0044     3.9730     3.9730     0.0000
  1 C      6.0763     6.0000    -0.0763     3.9692     3.9692     0.0000
  2 C      6.0770     6.0000    -0.0770     3.9701     3.9701    -0.0000
  3 C      6.0044     6.0000    -0.0044     3.9730     3.9730    -0.0000
  4 C      6.0763     6.0000    -0.0763     3.9692     3.9692    -0.0000
  5 C      6.0770     6.0000    -0.0770     3.9701     3.9701     0.0000
  6 H      0.9226     1.0000     0.0774     0.9940     0.9940     0.0000
  7 H      0.9210     1.0000     0.0790     0.9938     0.9938     0.0000
  8 H      0.9226     1.0000     0.0774     0.9940     0.9940    -0.0000
  9 H      0.9210     1.0000     0.0790     0.9938     0.9938    -0.0000
 10 C      6.0763     6.0000    -0.0763     3.9681     3.9681     0.0000
 11 C      6.1544     6.0000    -0.1544     3.9648     3.9648     0.0000
 12 H      0.9233     1.0000     0.0767     0.9941     0.9941     0.0000
 13 H      0.9209     1.0000     0.0791     0.9937     0.9937    -0.0000
 14 H      0.9238     1.0000     0.0762     0.9942     0.9942     0.0000
 15 C      6.0763     6.0000    -0.0763     3.9681     3.9681    -0.0000
 16 C      6.1544     6.0000    -0.1544     3.9648     3.9648    -0.0000
 17 H      0.9233     1.0000     0.0767     0.9941     0.9941    -0.0000
 18 H      0.9209     1.0000     0.0791     0.9937     0.9937     0.0000
 19 H      0.9238     1.0000     0.0762     0.9942     0.9942    -0.0000

  Mayer bond orders larger than 0.1
B(  0-C ,  1-C ) :   1.3625 B(  0-C ,  5-C ) :   1.3654 B(  0-C , 15-C ) :   1.0665 
B(  1-C ,  2-C ) :   1.4652 B(  1-C ,  6-H ) :   0.9614 B(  2-C ,  3-C ) :   1.3654 
B(  2-C ,  5-C ) :   0.1019 B(  2-C ,  7-H ) :   0.9596 B(  3-C ,  4-C ) :   1.3625 
B(  3-C , 10-C ) :   1.0665 B(  4-C ,  5-C ) :   1.4653 B(  4-C ,  8-H ) :   0.9614 
B(  5-C ,  9-H ) :   0.9596 B( 10-C , 11-C ) :   1.9012 B( 10-C , 12-H ) :   0.9591 
B( 11-C , 13-H ) :   0.9693 B( 11-C , 14-H ) :   0.9665 B( 15-C , 16-C ) :   1.9012 
B( 15-C , 17-H ) :   0.9591 B( 16-C , 18-H ) :   0.9693 B( 16-C , 19-H ) :   0.9665 


-------
TIMINGS
-------

Total SCF time: 0 days 0 hours 0 min 10 sec 

Total time                  ....      10.116 sec
Sum of individual times     ....      10.100 sec  ( 99.8%)

Fock matrix formation       ....       7.788 sec  ( 77.0%)
  XC integration            ....       2.809 sec  ( 36.1% of F)
    Basis function eval.    ....       2.117 sec  ( 75.4% of XC)
    Density eval.           ....       0.199 sec  (  7.1% of XC)
    XC-Functional eval.     ....       0.257 sec  (  9.2% of XC)
    XC-Potential eval.      ....       0.183 sec  (  6.5% of XC)
Diagonalization             ....       0.001 sec  (  0.0%)
Density matrix formation    ....       0.000 sec  (  0.0%)
Population analysis         ....       0.011 sec  (  0.1%)
Initial guess               ....       0.001 sec  (  0.0%)
Orbital Transformation      ....       0.000 sec  (  0.0%)
Orbital Orthonormalization  ....       0.000 sec  (  0.0%)
DIIS solution               ....       0.000 sec  (  0.0%)
SOSCF solution              ....       0.002 sec  (  0.0%)
Grid generation             ....       2.297 sec  ( 22.7%)

-------------------------   --------------------
FINAL SINGLE POINT ENERGY      -382.050791262454
-------------------------   --------------------

                                *** OPTIMIZATION RUN DONE ***

Storing optimized geometry in dvb_scan.013.xyz ... done
Storing optimized geometry and energy in dvb_scan.xyzall ... done
Storing actual gbw-file in dvb_scan.013.gbw ... done

                            ***************************************
                            *     ORCA property calculations      *
                            ***************************************

                                    ---------------------
                                    Active property flags
                                    ---------------------
   (+) Dipole Moment


------------------------------------------------------------------------------
                       ORCA ELECTRIC PROPERTIES CALCULATION
------------------------------------------------------------------------------

Dipole Moment Calculation                       ... on
Quadrupole Moment Calculation                   ... off
Polarizability Calculation                      ... off
GBWName                                         ... dvb_scan.gbw
Electron density file                           ... dvb_scan.scfp.tmp
The origin for moment calculation is the CENTER OF MASS  = ( 0.000520, -0.000244  0.000094)

-------------
DIPOLE MOMENT
-------------
                                X             Y             Z
Electronic contribution:      0.00513      -0.00278       0.00091
Nuclear contribution   :     -0.00518       0.00282      -0.00082
                        -----------------------------------------
Total Dipole Moment    :     -0.00004       0.00005       0.00009
                        -----------------------------------------
Magnitude (a.u.)       :      0.00011
Magnitude (Debye)      :      0.00027

                   **** RELAXED SURFACE SCAN DONE ***

                    SUMMARY OF THE CALCULATED SURFACE

----------------------------
RELAXED SURFACE SCAN RESULTS
----------------------------

Column   1: NONAME

The Calculated Surface using the 'Actual Energy'
 -180.00000000 -382.05078536
 -150.00000000 -382.04947122
 -120.00000000 -382.04517133
 -90.00000000 -382.04208869
 -60.00000000 -382.04512725
 -30.00000000 -382.04946339
   0.00000000 -382.05078747
  30.00000000 -382.04947630
  60.00000000 -382.04513545
  90.00000000 -382.04210185
 120.00000000 -382.04518619
 150.00000000 -382.04948903
 180.00000000 -382.05079126

The Calculated Surface using the SCF energy
 -180.00000000 -382.05078536
 -150.00000000 -382.04947122
 -120.00000000 -382.04517133
 -90.00000000 -382.04208869
 -60.00000000 -382.04512725
 -30.00000000 -382.04946339
   0.00000000 -382.05078747
  30.00000000 -382.04947630
  60.00000000 -382.04513545
  90.00000000 -382.04210185
 120.00000000 -382.04518619
 150.00000000 -382.04948903
 180.00000000 -382.05079126


Timings for individual modules:

Sum of individual times         ...     2032.776 sec (=  33.880 min)
GTO integral calculation        ...       25.889 sec (=   0.431 min)   1.3 %
SCF iterations                  ...     1417.614 sec (=  23.627 min)  69.7 %
SCF Gradient evaluation         ...      580.565 sec (=   9.676 min)  28.6 %
Geometry relaxation             ...        8.708 sec (=   0.145 min)   0.4 %
                             ****ORCA TERMINATED NORMALLY****
TOTAL RUN TIME: 0 days 0 hours 34 minutes 1 seconds 194 msec
