
                                 *****************
                                 * O   R   C   A *
                                 *****************

           --- An Ab Initio, DFT and Semiempirical electronic structure package ---

                  #######################################################
                  #                        -***-                        #
                  #  Department of molecular theory and spectroscopy    #
                  #              Directorship: Frank Neese              #
                  # Max Planck Institute for Chemical Energy Conversion #
                  #                  D-45470 Muelheim/Ruhr              #
                  #                       Germany                       #
                  #                                                     #
                  #                  All rights reserved                #
                  #                        -***-                        #
                  #######################################################


                         Program Version 4.0.1 -  RELEASE  -


 With contributions from (in alphabetic order):
   Daniel Aravena         : Magnetic Properties
   Michael Atanasov       : Ab Initio Ligand Field Theory
   Ute Becker             : Parallelization
   Martin Brehm           : Molecular dynamics
   Dmytro Bykov           : SCF Hessian
   Vijay G. Chilkuri      : MRCI spin determinant printing
   Dipayan Datta          : RHF DLPNO-CCSD density
   Achintya Kumar Dutta   : EOM-CC, STEOM-CC
   Dmitry Ganyushin       : Spin-Orbit,Spin-Spin,Magnetic field MRCI
   Yang Guo               : DLPNO-NEVPT2, CIM, IAO-localization
   Andreas Hansen         : Spin unrestricted coupled pair/coupled cluster methods
   Lee Huntington         : MR-EOM, pCC
   Robert Izsak           : Overlap fitted RIJCOSX, COSX-SCS-MP3, EOM
   Christian Kollmar      : KDIIS, OOCD, Brueckner-CCSD(T), CCSD density
   Simone Kossmann        : Meta GGA functionals, TD-DFT gradient, OOMP2, MP2 Hessian
   Martin Krupicka        : AUTO-CI
   Dagmar Lenk            : GEPOL surface
   Dimitrios Liakos       : Extrapolation schemes; parallel MDCI
   Dimitrios Manganas     : ROCIS; embedding schemes
   Dimitrios Pantazis     : SARC Basis sets
   Taras Petrenko         : DFT Hessian,TD-DFT gradient, ASA, ECA, R-Raman, ABS, FL, XAS/XES, NRVS
   Peter Pinski           : DLPNO-MP2
   Christoph Reimann      : Effective Core Potentials
   Marius Retegan         : Local ZFS, SOC
   Christoph Riplinger    : Optimizer, TS searches, QM/MM, DLPNO-CCSD(T), (RO)-DLPNO pert. Triples
   Tobias Risthaus        : Range-separated hybrids, TD-DFT gradient, RPA, STAB
   Michael Roemelt        : Restricted open shell CIS
   Masaaki Saitow         : Open-shell DLPNO
   Barbara Sandhoefer     : DKH picture change effects
   Kantharuban Sivalingam : CASSCF convergence, NEVPT2, FIC-MRCI
   Georgi Stoychev        : AutoAux
   Boris Wezisla          : Elementary symmetry handling
   Frank Wennmohs         : Technical directorship


 We gratefully acknowledge several colleagues who have allowed us to
 interface, adapt or use parts of their codes:
   Stefan Grimme, W. Hujo, H. Kruse,             : VdW corrections, initial TS optimization,
                  C. Bannwarth                     DFT functionals, gCP, sTDA/sTD-DF
   Ed Valeev                                     : LibInt (2-el integral package), F12 methods
   Garnet Chan, S. Sharma, J. Yang, R. Olivares  : DMRG
   Ulf Ekstrom                                   : XCFun DFT Library
   Mihaly Kallay                                 : mrcc  (arbitrary order and MRCC methods)
   Andreas Klamt, Michael Diedenhofen            : otool_cosmo (COSMO solvation model)
   Jiri Pittner, Ondrej Demel                    : Mk-CCSD
   Frank Weinhold                                : gennbo (NPA and NBO analysis)
   Christopher J. Cramer and Donald G. Truhlar   : smd solvation model


 Your calculation uses the libint2 library for the computation of 2-el integrals
 For citations please refer to: http://libint.valeyev.net

 This ORCA versions uses:
   CBLAS   interface :  Fast vector & matrix operations
   LAPACKE interface :  Fast linear algebra routines
   SCALAPACK package :  Parallel linear algebra routines


Your calculation utilizes the basis: STO-3G
   H-Ne       : W. J. Hehre, R. F. Stewart and J. A. Pople, J. Chem. Phys. 2657 (1969).
   Na-Ar      : W. J. Hehre, R. Ditchfield, R. F. Stewart and J. A. Pople, J. Chem. Phys. 2769 (1970).
   K,Ca,Ga-Kr : W. J. Pietro, B. A. Levy, W. J. Hehre and R. F. Stewart, J. Am. Chem. Soc. 19, 2225 (1980).
   Sc-Zn,Y-Cd : W. J. Pietro and W. J. Hehre, J. Comp. Chem. 4, 241 (1983).

================================================================================
                                        WARNINGS
                       Please study these warnings very carefully!
================================================================================

WARNING: Gradients needed for Numerical Frequencies
  ===> : Setting RunTyp to EnGrad
Warning: TCutStore was < 0. Adjusted to Thresh (uncritical)

WARNING: Symmetry is not implemented for Numerical Hessian or Gradient calculations
  ===> : Turning off Symmetry

INFO   : the flag for use of LIBINT has been found!

================================================================================
                                       INPUT FILE
================================================================================
NAME = dvb_raman.inp
|  1> # Raman frequency single point restricted B3LYP/sto-3g calc
|  2> ! RKS STO-3G B3LYP UseSym NumFreq
|  3> %elprop Polar 1
|  4> end
|  5> * xyz 0 1
|  6>  C                  0.27867948   -1.36683162    0.00000000
|  7>  C                  1.32303041   -0.44173575    0.00000000
|  8>  C                  1.04434506    0.92484978    0.00000000
|  9>  C                 -0.27867948    1.36683162    0.00000000
| 10>  C                 -1.32303041    0.44173575    0.00000000
| 11>  C                 -1.04434506   -0.92484978    0.00000000
| 12>  H                  2.36595443   -0.79037726    0.00000000
| 13>  H                  1.86746094    1.65407997    0.00000000
| 14>  H                 -2.36595443    0.79037726    0.00000000
| 15>  H                 -1.86746094   -1.65407997    0.00000000
| 16>  C                 -0.58659169    2.87589931    0.00000000
| 17>  C                  0.36350188    3.80076420    0.00000000
| 18>  H                 -1.65647768    3.12394312    0.00000000
| 19>  H                  0.14429560    4.87693235    0.00000000
| 20>  H                  1.43338788    3.55272039    0.00000000
| 21>  C                  0.58659169   -2.87589931    0.00000000
| 22>  C                 -0.36350188   -3.80076420    0.00000000
| 23>  H                  1.65647768   -3.12394312    0.00000000
| 24>  H                 -0.14429560   -4.87693235    0.00000000
| 25>  H                 -1.43338788   -3.55272039    0.00000000
| 26> *
| 27> 
| 28> 
| 29>                          ****END OF INPUT****
================================================================================

                     *******************************
                     * Energy+Gradient Calculation *
                     *******************************

---------------------------------
CARTESIAN COORDINATES (ANGSTROEM)
---------------------------------
  C      0.278679   -1.366832    0.000000
  C      1.323030   -0.441736    0.000000
  C      1.044345    0.924850    0.000000
  C     -0.278679    1.366832    0.000000
  C     -1.323030    0.441736    0.000000
  C     -1.044345   -0.924850    0.000000
  H      2.365954   -0.790377    0.000000
  H      1.867461    1.654080    0.000000
  H     -2.365954    0.790377    0.000000
  H     -1.867461   -1.654080    0.000000
  C     -0.586592    2.875899    0.000000
  C      0.363502    3.800764    0.000000
  H     -1.656478    3.123943    0.000000
  H      0.144296    4.876932    0.000000
  H      1.433388    3.552720    0.000000
  C      0.586592   -2.875899    0.000000
  C     -0.363502   -3.800764    0.000000
  H      1.656478   -3.123943    0.000000
  H     -0.144296   -4.876932    0.000000
  H     -1.433388   -3.552720    0.000000

----------------------------
CARTESIAN COORDINATES (A.U.)
----------------------------
  NO LB      ZA    FRAG     MASS         X           Y           Z
   0 C     6.0000    0    12.011    0.526628   -2.582937    0.000000
   1 C     6.0000    0    12.011    2.500165   -0.834760    0.000000
   2 C     6.0000    0    12.011    1.973526    1.747713    0.000000
   3 C     6.0000    0    12.011   -0.526628    2.582937    0.000000
   4 C     6.0000    0    12.011   -2.500165    0.834760    0.000000
   5 C     6.0000    0    12.011   -1.973526   -1.747713    0.000000
   6 H     1.0000    0     1.008    4.471006   -1.493597    0.000000
   7 H     1.0000    0     1.008    3.528990    3.125758    0.000000
   8 H     1.0000    0     1.008   -4.471006    1.493597    0.000000
   9 H     1.0000    0     1.008   -3.528990   -3.125758    0.000000
  10 C     6.0000    0    12.011   -1.108498    5.434662    0.000000
  11 C     6.0000    0    12.011    0.686919    7.182403    0.000000
  12 H     1.0000    0     1.008   -3.130289    5.903397    0.000000
  13 H     1.0000    0     1.008    0.272679    9.216067    0.000000
  14 H     1.0000    0     1.008    2.708711    6.713669    0.000000
  15 C     6.0000    0    12.011    1.108498   -5.434662    0.000000
  16 C     6.0000    0    12.011   -0.686919   -7.182403    0.000000
  17 H     1.0000    0     1.008    3.130289   -5.903397    0.000000
  18 H     1.0000    0     1.008   -0.272679   -9.216067    0.000000
  19 H     1.0000    0     1.008   -2.708711   -6.713669    0.000000

--------------------------------
INTERNAL COORDINATES (ANGSTROEM)
--------------------------------
 C      0   0   0     0.000000000000     0.00000000     0.00000000
 C      1   0   0     1.395159931220     0.00000000     0.00000000
 C      2   1   0     1.394711990022   120.00864270     0.00000000
 C      3   2   1     1.394898519725   119.99907158     0.00000000
 C      4   3   2     1.395159931220   119.99228572     0.00000000
 C      5   4   3     1.394711990022   120.00864270     0.00000000
 H      2   1   3     1.099655134116   119.98078866   180.00000000
 H      3   2   1     1.099680145277   120.01279270   180.00000000
 H      5   4   3     1.099655134116   119.98078866   180.00000000
 H      6   5   4     1.099680145277   120.01279270   180.00000000
 C      4   3   2     1.540160777993   120.00529475   180.00000000
 C     11   4   3     1.325915855743   122.69669283     0.00000000
 H     11   4   3     1.098263066518   114.58532990   180.00000000
 H     12  11   4     1.098266488729   122.71593921   180.00000085
 H     12  11   4     1.098263076260   122.71797739     0.00000000
 C      1   2   3     1.540160777993   120.00241953   180.00000000
 C     16   1   2     1.325915855743   122.69669283   180.00000000
 H     16   1   2     1.098263066518   114.58532990     0.00000000
 H     17  16   1     1.098266488729   122.71593921   180.00000085
 H     17  16   1     1.098263076260   122.71797739     0.00000000

---------------------------
INTERNAL COORDINATES (A.U.)
---------------------------
 C      0   0   0     0.000000000000     0.00000000     0.00000000
 C      1   0   0     2.636470183027     0.00000000     0.00000000
 C      2   1   0     2.635623696837   120.00864270     0.00000000
 C      3   2   1     2.635976186893   119.99907158     0.00000000
 C      4   3   2     2.636470183027   119.99228572     0.00000000
 C      5   4   3     2.635623696837   120.00864270     0.00000000
 H      2   1   3     2.078047045240   119.98078866   180.00000000
 H      3   2   1     2.078094309484   120.01279270   180.00000000
 H      5   4   3     2.078047045240   119.98078866   180.00000000
 H      6   5   4     2.078094309484   120.01279270   180.00000000
 C      4   3   2     2.910482072614   120.00529475   180.00000000
 C     11   4   3     2.505617843978   122.69669283     0.00000000
 H     11   4   3     2.075416418720   114.58532990   180.00000000
 H     12  11   4     2.075422885762   122.71593921   180.00000085
 H     12  11   4     2.075416437129   122.71797739     0.00000000
 C      1   2   3     2.910482072614   120.00241953   180.00000000
 C     16   1   2     2.505617843978   122.69669283   180.00000000
 H     16   1   2     2.075416418720   114.58532990     0.00000000
 H     17  16   1     2.075422885762   122.71593921   180.00000085
 H     17  16   1     2.075416437129   122.71797739     0.00000000

---------------------
BASIS SET INFORMATION
---------------------
There are 2 groups of distinct atoms

 Group   1 Type C   : 6s3p contracted to 2s1p pattern {33/3}
 Group   2 Type H   : 3s contracted to 1s pattern {3}

Atom   0C    basis set group =>   1
Atom   1C    basis set group =>   1
Atom   2C    basis set group =>   1
Atom   3C    basis set group =>   1
Atom   4C    basis set group =>   1
Atom   5C    basis set group =>   1
Atom   6H    basis set group =>   2
Atom   7H    basis set group =>   2
Atom   8H    basis set group =>   2
Atom   9H    basis set group =>   2
Atom  10C    basis set group =>   1
Atom  11C    basis set group =>   1
Atom  12H    basis set group =>   2
Atom  13H    basis set group =>   2
Atom  14H    basis set group =>   2
Atom  15C    basis set group =>   1
Atom  16C    basis set group =>   1
Atom  17H    basis set group =>   2
Atom  18H    basis set group =>   2
Atom  19H    basis set group =>   2

Checking for AutoStart:
The File: dvb_raman.gbw exists
Trying to determine its content:
     ... Fine, the file contains calculation information
     ... Fine, the calculation information was read
     ... Fine, the file contains a basis set
     ... Fine, the basis set was read
     ... Fine, the file contains a geometry
     ... Fine, the geometry was read
     ... Fine, the file contains a set of orbitals
     ... Fine, the orbitals can be read
     => possible old guess file was deleted
     => GBW file was renamed to GES file
     => GES file is set as startup file
     => Guess is set to MORead
     ... now leaving AutoStart

------------------------------------------------------------------------------
                           ORCA GTO INTEGRAL CALCULATION
------------------------------------------------------------------------------

                         BASIS SET STATISTICS AND STARTUP INFO

 # of primitive gaussian shells          ...  120
 # of primitive gaussian functions       ...  180
 # of contracted shells                  ...   40
 # of contracted basis functions         ...   60
 Highest angular momentum                ...    1
 Maximum contraction depth               ...    3
 Integral package used                   ... LIBINT
 Integral threshhold            Thresh   ...  2.500e-11
 Primitive cut-off              TCut     ...  2.500e-12


------------------------------ INTEGRAL EVALUATION ----------------------------


 * One electron integrals 
 Pre-screening matrix                    ... done
 Shell pair data                         ... done (   0.001 sec)

-------------------------------------------------------------------------------
                                 ORCA SCF
-------------------------------------------------------------------------------

------------
SCF SETTINGS
------------
Hamiltonian:
 Density Functional     Method          .... DFT(GTOs)
 Exchange Functional    Exchange        .... B88
   X-Alpha parameter    XAlpha          ....  0.666667
   Becke's b parameter  XBeta           ....  0.004200
 Correlation Functional Correlation     .... LYP
 LDA part of GGA corr.  LDAOpt          .... VWN-5
 Gradients option       PostSCFGGA      .... off
 Hybrid DFT is turned on
   Fraction HF Exchange ScalHFX         ....  0.200000
   Scaling of DF-GGA-X  ScalDFX         ....  0.720000
   Scaling of DF-GGA-C  ScalDFC         ....  0.810000
   Scaling of DF-LDA-C  ScalLDAC        ....  1.000000
   Perturbative correction              ....  0.000000
   NL short-range parameter             ....  4.800000


General Settings:
 Integral files         IntName         .... dvb_raman
 Hartree-Fock type      HFTyp           .... RHF
 Total Charge           Charge          ....    0
 Multiplicity           Mult            ....    1
 Number of Electrons    NEL             ....   70
 Basis Dimension        Dim             ....   60
 Nuclear Repulsion      ENuc            ....    450.0061360697 Eh

Convergence Acceleration:
 DIIS                   CNVDIIS         .... on
   Start iteration      DIISMaxIt       ....    12
   Startup error        DIISStart       ....  0.200000
   # of expansion vecs  DIISMaxEq       ....     5
   Bias factor          DIISBfac        ....   1.050
   Max. coefficient     DIISMaxC        ....  10.000
 Newton-Raphson         CNVNR           .... off
 SOSCF                  CNVSOSCF        .... on
   Start iteration      SOSCFMaxIt      ....   150
   Startup grad/error   SOSCFStart      ....  0.003300
 Level Shifting         CNVShift        .... on
   Level shift para.    LevelShift      ....    0.2500
   Turn off err/grad.   ShiftErr        ....    0.0010
 Zerner damping         CNVZerner       .... off
 Static damping         CNVDamp         .... on
   Fraction old density DampFac         ....    0.7000
   Max. Damping (<1)    DampMax         ....    0.9800
   Min. Damping (>=0)   DampMin         ....    0.0000
   Turn off err/grad.   DampErr         ....    0.1000
 Fernandez-Rico         CNVRico         .... off

SCF Procedure:
 Maximum # iterations   MaxIter         ....   125
 SCF integral mode      SCFMode         .... Direct
   Integral package                     .... LIBINT
 Reset frequeny         DirectResetFreq ....    20
 Integral Threshold     Thresh          ....  2.500e-11 Eh
 Primitive CutOff       TCut            ....  2.500e-12 Eh

Convergence Tolerance:
 Convergence Check Mode ConvCheckMode   .... Total+1el-Energy
 Convergence forced     ConvForced      .... 0
 Energy Change          TolE            ....  1.000e-08 Eh
 1-El. energy change                    ....  1.000e-05 Eh
 Orbital Gradient       TolG            ....  1.000e-05
 Orbital Rotation angle TolX            ....  1.000e-05
 DIIS Error             TolErr          ....  5.000e-07


Diagonalization of the overlap matrix:
Smallest eigenvalue                        ... 1.714e-01
Time for diagonalization                   ...    0.001 sec
Threshold for overlap eigenvalues          ... 1.000e-08
Number of eigenvalues below threshold      ... 0
Time for construction of square roots      ...    0.001 sec
Total time needed                          ...    0.002 sec

---------------------
INITIAL GUESS: MOREAD
---------------------
Guess MOs are being read from file: dvb_raman.ges
Input Geometry matches current geometry (good)
Input basis set matches current basis set (good)
MOs were renormalized
MOs were reorthogonalized (Cholesky)
                      ------------------
                      INITIAL GUESS DONE (   0.0 sec)
                      ------------------
-------------------
DFT GRID GENERATION
-------------------

General Integration Accuracy     IntAcc      ...  4.340
Radial Grid Type                 RadialGrid  ... Gauss-Chebyshev
Angular Grid (max. acc.)         AngularGrid ... Lebedev-110
Angular grid pruning method      GridPruning ... 3 (G Style)
Weight generation scheme         WeightScheme... Becke
Basis function cutoff            BFCut       ...    1.0000e-11
Integration weight cutoff        WCut        ...    1.0000e-14
Grids for H and He will be reduced by one unit

# of grid points (after initial pruning)     ...  24500 (   0.0 sec)
# of grid points (after weights+screening)   ...  22558 (   0.1 sec)
nearest neighbour list constructed           ...    0.0 sec
Grid point re-assignment to atoms done       ...    0.0 sec
Grid point division into batches done        ...    0.0 sec
Reduced shell lists constructed in    0.3 sec

Total number of grid points                  ...    22558
Total number of batches                      ...      360
Average number of points per batch           ...       62
Average number of grid points per atom       ...     1128
Average number of shells per batch           ...    27.37 (68.43%)
Average number of basis functions per batch  ...    44.72 (74.53%)
Average number of large shells per batch     ...    20.90 (76.36%)
Average number of large basis fcns per batch ...    35.04 (78.36%)
Maximum spatial batch extension              ...  26.06, 16.14, 44.34 au
Average spatial batch extension              ...   3.99,  3.23,  5.32 au

Time for grid setup =    0.482 sec

--------------
SCF ITERATIONS
--------------
ITER       Energy         Delta-E        Max-DP      RMS-DP      [F,P]     Damp
               ***  Starting incremental Fock matrix formation  ***
                      *** Initiating the SOSCF procedure ***
                      *** Re-Reading the Fockian *** 
                      *** Removing any level shift *** 
ITER      Energy       Delta-E        Grad      Rot      Max-DP    RMS-DP
  0   -382.04149553 -382.0414955272  0.000000  0.000000  0.000000  0.000000
               *** Restarting incremental Fock matrix formation ***
                 **** Energy Check signals convergence ****
              ***Rediagonalizing the Fockian in SOSCF/NRSCF***

               *****************************************************
               *                     SUCCESS                       *
               *           SCF CONVERGED AFTER   1 CYCLES          *
               *****************************************************

Setting up the final grid:

General Integration Accuracy     IntAcc      ...  4.670
Radial Grid Type                 RadialGrid  ... Gauss-Chebyshev
Angular Grid (max. acc.)         AngularGrid ... Lebedev-302
Angular grid pruning method      GridPruning ... 3 (G Style)
Weight generation scheme         WeightScheme... Becke
Basis function cutoff            BFCut       ...    1.0000e-11
Integration weight cutoff        WCut        ...    1.0000e-14
Grids for H and He will be reduced by one unit

# of grid points (after initial pruning)     ...  96060 (   0.0 sec)
# of grid points (after weights+screening)   ...  87140 (   0.4 sec)
nearest neighbour list constructed           ...    0.0 sec
Grid point re-assignment to atoms done       ...    0.0 sec
Grid point division into batches done        ...    0.3 sec
Reduced shell lists constructed in    1.6 sec

Total number of grid points                  ...    87140
Total number of batches                      ...     1370
Average number of points per batch           ...       63
Average number of grid points per atom       ...     4357
Average number of shells per batch           ...    25.03 (62.58%)
Average number of basis functions per batch  ...    41.09 (68.48%)
Average number of large shells per batch     ...    18.55 (74.11%)
Average number of large basis fcns per batch ...    31.33 (76.25%)
Maximum spatial batch extension              ...  20.31, 19.58, 23.20 au
Average spatial batch extension              ...   2.54,  2.33,  2.86 au

Final grid set up in    2.1 sec
Final integration                            ... done (   1.2 sec)
Change in XC energy                          ...    -0.001229841
Integrated number of electrons               ...    70.000192844
Previous integrated no of electrons          ...    69.999741922

----------------
TOTAL SCF ENERGY
----------------

Total Energy       :         -382.04272537 Eh          -10395.91108 eV

Components:
Nuclear Repulsion  :          450.00613607 Eh           12245.28950 eV
Electronic Energy  :         -832.04886144 Eh          -22641.20058 eV
One Electron Energy:        -1408.66056100 Eh          -38331.60261 eV
Two Electron Energy:          576.61169956 Eh           15690.40203 eV

Virial components:
Potential Energy   :         -758.06934314 Eh          -20628.11554 eV
Kinetic Energy     :          376.02661777 Eh           10232.20446 eV
Virial Ratio       :            2.01599915


DFT components:
N(Alpha)           :       35.000096422186 electrons
N(Beta)            :       35.000096422186 electrons
N(Total)           :       70.000192844372 electrons
E(X)               :      -43.840638491438 Eh       
E(C)               :       -2.721489080001 Eh       
E(XC)              :      -46.562127571439 Eh       

---------------
SCF CONVERGENCE
---------------

  Last Energy change         ...   -9.0949e-13  Tolerance :   1.0000e-08
  Last MAX-Density change    ...    1.9417e-07  Tolerance :   1.0000e-07
  Last RMS-Density change    ...    1.6696e-08  Tolerance :   5.0000e-09
  Last Orbital Gradient      ...    4.5344e-08  Tolerance :   1.0000e-05
  Last Orbital Rotation      ...    1.6400e-07  Tolerance :   1.0000e-05

             **** THE GBW FILE WAS UPDATED (dvb_raman.gbw) ****
             **** DENSITY FILE WAS UPDATED (dvb_raman.scfp.tmp) ****
             **** ENERGY FILE WAS UPDATED (dvb_raman.en.tmp) ****
----------------
ORBITAL ENERGIES
----------------

  NO   OCC          E(Eh)            E(eV) 
   0   2.0000     -10.013885      -272.4917 
   1   2.0000     -10.013820      -272.4899 
   2   2.0000     -10.003676      -272.2139 
   3   2.0000     -10.003675      -272.2138 
   4   2.0000     -10.002781      -272.1895 
   5   2.0000     -10.002746      -272.1885 
   6   2.0000     -10.001674      -272.1594 
   7   2.0000     -10.001566      -272.1565 
   8   2.0000      -9.988142      -271.7912 
   9   2.0000      -9.988142      -271.7912 
  10   2.0000      -0.814332       -22.1591 
  11   2.0000      -0.751403       -20.4467 
  12   2.0000      -0.717026       -19.5113 
  13   2.0000      -0.700471       -19.0608 
  14   2.0000      -0.666500       -18.1364 
  15   2.0000      -0.581505       -15.8236 
  16   2.0000      -0.556896       -15.1539 
  17   2.0000      -0.528388       -14.3782 
  18   2.0000      -0.508512       -13.8373 
  19   2.0000      -0.458321       -12.4716 
  20   2.0000      -0.434938       -11.8353 
  21   2.0000      -0.406808       -11.0698 
  22   2.0000      -0.395963       -10.7747 
  23   2.0000      -0.393602       -10.7104 
  24   2.0000      -0.371845       -10.1184 
  25   2.0000      -0.354213        -9.6386 
  26   2.0000      -0.345354        -9.3976 
  27   2.0000      -0.326523        -8.8851 
  28   2.0000      -0.301657        -8.2085 
  29   2.0000      -0.291832        -7.9412 
  30   2.0000      -0.277271        -7.5449 
  31   2.0000      -0.259438        -7.0597 
  32   2.0000      -0.212256        -5.7758 
  33   2.0000      -0.193830        -5.2744 
  34   2.0000      -0.156285        -4.2527 
  35   0.0000       0.053288         1.4500 
  36   0.0000       0.094495         2.5713 
  37   0.0000       0.120197         3.2707 
  38   0.0000       0.185189         5.0393 
  39   0.0000       0.284062         7.7297 
  40   0.0000       0.322860         8.7855 
  41   0.0000       0.333196         9.0667 
  42   0.0000       0.369085        10.0433 
  43   0.0000       0.373898        10.1743 
  44   0.0000       0.416447        11.3321 
  45   0.0000       0.419562        11.4169 
  46   0.0000       0.425151        11.5690 
  47   0.0000       0.449396        12.2287 
  48   0.0000       0.472469        12.8565 
  49   0.0000       0.499553        13.5935 
  50   0.0000       0.542461        14.7611 
  51   0.0000       0.574216        15.6252 
  52   0.0000       0.590435        16.0666 
  53   0.0000       0.613859        16.7039 
  54   0.0000       0.630190        17.1484 
  55   0.0000       0.649422        17.6717 
  56   0.0000       0.696449        18.9513 
  57   0.0000       0.746672        20.3180 
  58   0.0000       0.809957        22.0401 
  59   0.0000       0.819750        22.3065 

                    ********************************
                    * MULLIKEN POPULATION ANALYSIS *
                    ********************************

-----------------------
MULLIKEN ATOMIC CHARGES
-----------------------
   0 C :   -0.004271
   1 C :   -0.078691
   2 C :   -0.076977
   3 C :   -0.004271
   4 C :   -0.078691
   5 C :   -0.076977
   6 H :    0.078352
   7 H :    0.079425
   8 H :    0.078352
   9 H :    0.079425
  10 C :   -0.074812
  11 C :   -0.155796
  12 H :    0.078312
  13 H :    0.078080
  14 H :    0.076377
  15 C :   -0.074812
  16 C :   -0.155796
  17 H :    0.078312
  18 H :    0.078080
  19 H :    0.076377
Sum of atomic charges:   -0.0000000

--------------------------------
MULLIKEN REDUCED ORBITAL CHARGES
--------------------------------
  0 C s       :     3.131062  s :     3.131062
      pz      :     0.993051  p :     2.873209
      px      :     0.950374
      py      :     0.929784
  1 C s       :     3.140678  s :     3.140678
      pz      :     1.003646  p :     2.938013
      px      :     0.979079
      py      :     0.955289
  2 C s       :     3.139289  s :     3.139289
      pz      :     1.000740  p :     2.937687
      px      :     0.970373
      py      :     0.966574
  3 C s       :     3.131062  s :     3.131062
      pz      :     0.993051  p :     2.873209
      px      :     0.950374
      py      :     0.929784
  4 C s       :     3.140678  s :     3.140678
      pz      :     1.003646  p :     2.938013
      px      :     0.979079
      py      :     0.955289
  5 C s       :     3.139289  s :     3.139289
      pz      :     1.000740  p :     2.937687
      px      :     0.970373
      py      :     0.966574
  6 H s       :     0.921648  s :     0.921648
  7 H s       :     0.920575  s :     0.920575
  8 H s       :     0.921648  s :     0.921648
  9 H s       :     0.920575  s :     0.920575
 10 C s       :     3.158258  s :     3.158258
      pz      :     0.994738  p :     2.916554
      px      :     0.987228
      py      :     0.934588
 11 C s       :     3.162286  s :     3.162286
      pz      :     1.007825  p :     2.993510
      px      :     0.992909
      py      :     0.992775
 12 H s       :     0.921688  s :     0.921688
 13 H s       :     0.921920  s :     0.921920
 14 H s       :     0.923623  s :     0.923623
 15 C s       :     3.158258  s :     3.158258
      pz      :     0.994738  p :     2.916554
      px      :     0.987228
      py      :     0.934588
 16 C s       :     3.162286  s :     3.162286
      pz      :     1.007825  p :     2.993510
      px      :     0.992909
      py      :     0.992775
 17 H s       :     0.921688  s :     0.921688
 18 H s       :     0.921920  s :     0.921920
 19 H s       :     0.923623  s :     0.923623


                     *******************************
                     * LOEWDIN POPULATION ANALYSIS *
                     *******************************

----------------------
LOEWDIN ATOMIC CHARGES
----------------------
   0 C :    0.003111
   1 C :   -0.045652
   2 C :   -0.045147
   3 C :    0.003111
   4 C :   -0.045652
   5 C :   -0.045147
   6 H :    0.042758
   7 H :    0.044921
   8 H :    0.042758
   9 H :    0.044921
  10 C :   -0.037257
  11 C :   -0.093684
  12 H :    0.042506
  13 H :    0.044256
  14 H :    0.044187
  15 C :   -0.037257
  16 C :   -0.093684
  17 H :    0.042506
  18 H :    0.044256
  19 H :    0.044187

-------------------------------
LOEWDIN REDUCED ORBITAL CHARGES
-------------------------------
  0 C s       :     3.026898  s :     3.026898
      pz      :     0.992278  p :     2.969991
      px      :     1.003872
      py      :     0.973842
  1 C s       :     3.020717  s :     3.020717
      pz      :     1.003869  p :     3.024935
      px      :     1.012230
      py      :     1.008836
  2 C s       :     3.020106  s :     3.020106
      pz      :     1.001106  p :     3.025041
      px      :     1.012979
      py      :     1.010956
  3 C s       :     3.026898  s :     3.026898
      pz      :     0.992278  p :     2.969991
      px      :     1.003872
      py      :     0.973842
  4 C s       :     3.020717  s :     3.020717
      pz      :     1.003869  p :     3.024935
      px      :     1.012230
      py      :     1.008836
  5 C s       :     3.020106  s :     3.020106
      pz      :     1.001106  p :     3.025041
      px      :     1.012979
      py      :     1.010956
  6 H s       :     0.957242  s :     0.957242
  7 H s       :     0.955079  s :     0.955079
  8 H s       :     0.957242  s :     0.957242
  9 H s       :     0.955079  s :     0.955079
 10 C s       :     3.038049  s :     3.038049
      pz      :     0.994271  p :     2.999207
      px      :     1.021475
      py      :     0.983461
 11 C s       :     3.027373  s :     3.027373
      pz      :     1.008476  p :     3.066311
      px      :     1.029766
      py      :     1.028069
 12 H s       :     0.957494  s :     0.957494
 13 H s       :     0.955744  s :     0.955744
 14 H s       :     0.955813  s :     0.955813
 15 C s       :     3.038049  s :     3.038049
      pz      :     0.994271  p :     2.999207
      px      :     1.021475
      py      :     0.983461
 16 C s       :     3.027373  s :     3.027373
      pz      :     1.008476  p :     3.066311
      px      :     1.029766
      py      :     1.028069
 17 H s       :     0.957494  s :     0.957494
 18 H s       :     0.955744  s :     0.955744
 19 H s       :     0.955813  s :     0.955813


                      *****************************
                      * MAYER POPULATION ANALYSIS *
                      *****************************

  NA   - Mulliken gross atomic population
  ZA   - Total nuclear charge
  QA   - Mulliken gross atomic charge
  VA   - Mayer's total valence
  BVA  - Mayer's bonded valence
  FA   - Mayer's free valence

  ATOM       NA         ZA         QA         VA         BVA        FA
  0 C      6.0043     6.0000    -0.0043     3.9751     3.9751    -0.0000
  1 C      6.0787     6.0000    -0.0787     3.9728     3.9728     0.0000
  2 C      6.0770     6.0000    -0.0770     3.9733     3.9733    -0.0000
  3 C      6.0043     6.0000    -0.0043     3.9751     3.9751     0.0000
  4 C      6.0787     6.0000    -0.0787     3.9728     3.9728     0.0000
  5 C      6.0770     6.0000    -0.0770     3.9733     3.9733    -0.0000
  6 H      0.9216     1.0000     0.0784     0.9939     0.9939     0.0000
  7 H      0.9206     1.0000     0.0794     0.9937     0.9937    -0.0000
  8 H      0.9216     1.0000     0.0784     0.9939     0.9939     0.0000
  9 H      0.9206     1.0000     0.0794     0.9937     0.9937    -0.0000
 10 C      6.0748     6.0000    -0.0748     3.9661     3.9661     0.0000
 11 C      6.1558     6.0000    -0.1558     3.9671     3.9671    -0.0000
 12 H      0.9217     1.0000     0.0783     0.9939     0.9939     0.0000
 13 H      0.9219     1.0000     0.0781     0.9939     0.9939    -0.0000
 14 H      0.9236     1.0000     0.0764     0.9942     0.9942    -0.0000
 15 C      6.0748     6.0000    -0.0748     3.9661     3.9661     0.0000
 16 C      6.1558     6.0000    -0.1558     3.9671     3.9671     0.0000
 17 H      0.9217     1.0000     0.0783     0.9939     0.9939     0.0000
 18 H      0.9219     1.0000     0.0781     0.9939     0.9939    -0.0000
 19 H      0.9236     1.0000     0.0764     0.9942     0.9942     0.0000

  Mayer bond orders larger than 0.1
B(  0-C ,  1-C ) :   1.3849 B(  0-C ,  5-C ) :   1.3878 B(  0-C , 15-C ) :   1.0300 
B(  1-C ,  2-C ) :   1.4505 B(  1-C ,  4-C ) :   0.1048 B(  1-C ,  6-H ) :   0.9612 
B(  2-C ,  3-C ) :   1.3878 B(  2-C ,  5-C ) :   0.1093 B(  2-C ,  7-H ) :   0.9557 
B(  3-C ,  4-C ) :   1.3849 B(  3-C , 10-C ) :   1.0300 B(  4-C ,  5-C ) :   1.4505 
B(  4-C ,  8-H ) :   0.9612 B(  5-C ,  9-H ) :   0.9557 B( 10-C , 11-C ) :   1.9332 
B( 10-C , 12-H ) :   0.9596 B( 11-C , 13-H ) :   0.9680 B( 11-C , 14-H ) :   0.9618 
B( 15-C , 16-C ) :   1.9332 B( 15-C , 17-H ) :   0.9596 B( 16-C , 18-H ) :   0.9680 
B( 16-C , 19-H ) :   0.9618 

-------
TIMINGS
-------

Total SCF time: 0 days 0 hours 0 min 7 sec 

Total time                  ....       7.731 sec
Sum of individual times     ....       7.624 sec  ( 98.6%)

Fock matrix formation       ....       5.010 sec  ( 64.8%)
  XC integration            ....       1.857 sec  ( 37.1% of F)
    Basis function eval.    ....       1.317 sec  ( 71.0% of XC)
    Density eval.           ....       0.150 sec  (  8.1% of XC)
    XC-Functional eval.     ....       0.179 sec  (  9.6% of XC)
    XC-Potential eval.      ....       0.177 sec  (  9.5% of XC)
Diagonalization             ....       0.001 sec  (  0.0%)
Density matrix formation    ....       0.000 sec  (  0.0%)
Population analysis         ....       0.002 sec  (  0.0%)
Initial guess               ....       0.002 sec  (  0.0%)
Orbital Transformation      ....       0.000 sec  (  0.0%)
Orbital Orthonormalization  ....       0.000 sec  (  0.0%)
DIIS solution               ....       0.000 sec  (  0.0%)
SOSCF solution              ....       0.001 sec  (  0.0%)
Grid generation             ....       2.609 sec  ( 33.7%)

-------------------------   --------------------
FINAL SINGLE POINT ENERGY      -382.042725368283
-------------------------   --------------------

------------------------------------------------------------------------------
                         ORCA SCF GRADIENT CALCULATION
------------------------------------------------------------------------------

Gradient of the Kohn-Sham DFT energy:
Kohn-Sham wavefunction type      ... RKS
Hartree-Fock exchange scaling    ...    0.200
Number of operators              ...    1
Number of atoms                  ...   20
Basis set dimensions             ...   60
Integral neglect threshold       ... 2.5e-11
Integral primitive cutoff        ... 2.5e-12

Nuclear repulsion gradient       ... done
One Electron Gradient            ... done
Pre-screening matrix             ... done
Starting the two electron gradient:
Two electron gradient done
Exchange-correlation gradient    ... done

------------------
CARTESIAN GRADIENT
------------------

   1   C   :   -0.008621741    0.050798389    0.000000000
   2   C   :   -0.019341294   -0.006129810   -0.000000000
   3   C   :   -0.019986262    0.001458958    0.000000000
   4   C   :    0.008621741   -0.050798393   -0.000000000
   5   C   :    0.019341294    0.006129812    0.000000000
   6   C   :    0.019986261   -0.001458957    0.000000000
   7   H   :    0.001208766    0.000260107    0.000000000
   8   H   :    0.001349676    0.003334580    0.000000000
   9   H   :   -0.001208766   -0.000260108    0.000000000
  10   H   :   -0.001349676   -0.003334578   -0.000000000
  11   C   :    0.004613682    0.039153077    0.000000000
  12   C   :   -0.012974990   -0.023403312   -0.000000000
  13   H   :    0.000448872   -0.003050079   -0.000000000
  14   H   :    0.002072221    0.001376432   -0.000000000
  15   H   :    0.002650686   -0.000057776    0.000000000
  16   C   :   -0.004613682   -0.039153079   -0.000000000
  17   C   :    0.012974989    0.023403311   -0.000000000
  18   H   :   -0.000448871    0.003050079   -0.000000000
  19   H   :   -0.002072221   -0.001376433    0.000000000
  20   H   :   -0.002650686    0.000057779    0.000000000

Difference to translation invariance:
           :    0.0000000000    0.0000000000    0.0000000000

Norm of the cartesian gradient     ...    0.1074761158
RMS gradient                       ...    0.0138751069
MAX gradient                       ...    0.0507983930

-------
TIMINGS
-------

Total SCF gradient time            ...       11.863 sec

One electron gradient       ....       0.184 sec  (  1.6%)
Prescreening matrices       ....       0.035 sec  (  0.3%)
Two electron gradient       ....       4.543 sec  ( 38.3%)
XC gradient                 ....       6.948 sec  ( 58.6%)

                            ***************************************
                            *     ORCA property calculations      *
                            ***************************************

                                    ---------------------
                                    Active property flags
                                    ---------------------
   (+) Dipole Moment
   (+) Polarizability


------------------------------------------------------------------------------
                       ORCA ELECTRIC PROPERTIES CALCULATION
------------------------------------------------------------------------------

Dipole Moment Calculation                       ... on
Quadrupole Moment Calculation                   ... off
Polarizability Calculation                      ... Analytic (CP-SCF)
GBWName                                         ... dvb_raman.gbw
Electron density file                           ... dvb_raman.scfp.tmp
The origin for moment calculation is the CENTER OF MASS  = ( 0.000000, -0.000000  0.000000)

-------------
DIPOLE MOMENT
-------------
                                X             Y             Z
Electronic contribution:      0.00000       0.00000      -0.00000
Nuclear contribution   :      0.00000       0.00000       0.00000
                        -----------------------------------------
Total Dipole Moment    :      0.00000       0.00000      -0.00000
                        -----------------------------------------
Magnitude (a.u.)       :      0.00000
Magnitude (Debye)      :      0.00000

Transforming and storing MO dipole integrals   ... done

                ... starting polarizability calculation

Opening the Dipole integral file               ... (dvb_raman.dmo.tmp) done
Reading Dipole-MO integrals                    ... done
Solving CP-SCF equations                       ... 
------------------------------------------------------------------------------
                           ORCA CP-SCF CALCULATION
------------------------------------------------------------------------------

Input orbitals are from        ... dvb_raman.gbw
Input Perturbation             ... dvb_raman.cpv.tmp
Wavefunction output            ... dvb_raman.cpu.tmp
Perturbation mode              ... Real perturbation
Solver                         ... POPLE
Max. number of iterations      ... 64
Convergence tolerance          ... 1.000e-06
Integral handling              ... Direct
Number of perturbations        ... 3
Number of operators            ... 1
Orbital ranges used for CP-SCF:
 Operator 0:  Orbitals   0... 34  to  35... 59
DFT calculation                         ... on
Exchange functional (SCF)               ... B88
Exchange functional (CP-SCF)            ... B88
   X-Alpha parameter    XAlpha (SCF)    ...  0.666667
   X-Alpha parameter    XAlpha (CP-SCF) ...  0.666667
   Becke's b parameter  XBeta (SCF)     ...  0.004200
   Becke's b parameter  XBeta (CP-SCF)  ...  0.004200
Correlation functional (SCF)            ... LYP
Correlation functional (CP-SCF)         ... LYP
 LDA part of GGA corr.  LDAOpt (SCF)    ... VWN-5
 LDA part of GGA corr.  LDAOpt (CP-SCF) ... VWN-5
Hybrid DFT                              ... on
   Exchange mixing (SCF)                ...  0.200
   Exchange mixing (CP-SCF)             ...  0.200
   GGA exch. scaling(SCF)               ...  0.720
   GGA exch. scaling (CP-SCF)           ...  0.720
   GGA corr. scaling (SCF)              ...  0.810
   GGA corr. scaling (CP-SCF)           ...  0.810
Variables per vector in CP-SCF ... 875
Number of vectors sought       ... 3
Recalculating density on grid  ... done
Calculating the xc-kernel      ... done
     CP-SCF ITERATION   0: 
     CP-SCF ITERATION   1:      0.486321866259
     CP-SCF ITERATION   2:      0.065613998390
     CP-SCF ITERATION   3:      0.009951787046
     CP-SCF ITERATION   4:      0.000416859617
     CP-SCF ITERATION   5:      0.000063374481
     CP-SCF ITERATION   6:      0.000001971127
     CP-SCF ITERATION   7:      0.000000144728
done
Reading CP-SCF coefficients                    ... done
Doing the polarizability tensor   ... done
Cleaning up                                    ... done

-------------------------
THE POLARIZABILITY TENSOR
-------------------------

The raw cartesian tensor (atomic units):
   68.15622      8.16306      0.00000  
    8.16306    126.81308     -0.00000  
    0.00000     -0.00000     11.24223  
diagonalized tensor: 
   11.24223     67.04138    127.92792  

   -0.00000      0.99080     -0.13531  
    0.00000     -0.13531     -0.99080  
    1.00000      0.00000      0.00000  

Isotropic polarizability :  68.73718


----------------------------------------------------------------------------
                           ORCA NUMERICAL FREQUENCIES
----------------------------------------------------------------------------

Number of atoms                ... 20
Central differences            ... used
Number of displacements        ... 120
Numerical increment            ...  0.005 bohr
IR-spectrum generation         ... on
Raman-spectrum generation      ... on
Polarizability calculation     ... 1
Surface Crossing Hessian       ... off

The output will be reduced. Please look at the following files:
SCF program output             ... >dvb_raman.lastscf
Integral program output        ... >dvb_raman.lastint
Gradient program output        ... >dvb_raman.lastgrad
Dipole moment program output   ... >dvb_raman.lastmom


         <<<Energy and Gradient at the input geometry>>>
The origin for moment calculation is the CENTER OF MASS  = ( 0.000000, -0.000000  0.000000)
             <<<Displacing   1/coordinate 1 (+)>>>
The origin for moment calculation is the CENTER OF MASS  = ( 0.000461, -0.000000  0.000000)
             <<<Displacing   1/coordinate 1 (-)>>>
The origin for moment calculation is the CENTER OF MASS  = (-0.000461, -0.000000  0.000000)
             <<<Displacing   1/coordinate 2 (+)>>>
The origin for moment calculation is the CENTER OF MASS  = ( 0.000000,  0.000461  0.000000)
             <<<Displacing   1/coordinate 2 (-)>>>
The origin for moment calculation is the CENTER OF MASS  = ( 0.000000, -0.000461  0.000000)
             <<<Displacing   1/coordinate 3 (+)>>>
The origin for moment calculation is the CENTER OF MASS  = ( 0.000000, -0.000000  0.000461)
             <<<Displacing   1/coordinate 3 (-)>>>
The origin for moment calculation is the CENTER OF MASS  = ( 0.000000, -0.000000 -0.000461)
             <<<Displacing   2/coordinate 1 (+)>>>
The origin for moment calculation is the CENTER OF MASS  = ( 0.000461, -0.000000  0.000000)
             <<<Displacing   2/coordinate 1 (-)>>>
The origin for moment calculation is the CENTER OF MASS  = (-0.000461, -0.000000  0.000000)
             <<<Displacing   2/coordinate 2 (+)>>>
The origin for moment calculation is the CENTER OF MASS  = ( 0.000000,  0.000461  0.000000)
             <<<Displacing   2/coordinate 2 (-)>>>
The origin for moment calculation is the CENTER OF MASS  = ( 0.000000, -0.000461  0.000000)
             <<<Displacing   2/coordinate 3 (+)>>>
The origin for moment calculation is the CENTER OF MASS  = ( 0.000000, -0.000000  0.000461)
             <<<Displacing   2/coordinate 3 (-)>>>
The origin for moment calculation is the CENTER OF MASS  = ( 0.000000, -0.000000 -0.000461)
             <<<Displacing   3/coordinate 1 (+)>>>
The origin for moment calculation is the CENTER OF MASS  = ( 0.000461, -0.000000  0.000000)
             <<<Displacing   3/coordinate 1 (-)>>>
The origin for moment calculation is the CENTER OF MASS  = (-0.000461, -0.000000  0.000000)
             <<<Displacing   3/coordinate 2 (+)>>>
The origin for moment calculation is the CENTER OF MASS  = ( 0.000000,  0.000461  0.000000)
             <<<Displacing   3/coordinate 2 (-)>>>
The origin for moment calculation is the CENTER OF MASS  = ( 0.000000, -0.000461  0.000000)
             <<<Displacing   3/coordinate 3 (+)>>>
The origin for moment calculation is the CENTER OF MASS  = ( 0.000000, -0.000000  0.000461)
             <<<Displacing   3/coordinate 3 (-)>>>
The origin for moment calculation is the CENTER OF MASS  = ( 0.000000, -0.000000 -0.000461)
             <<<Displacing   4/coordinate 1 (+)>>>
The origin for moment calculation is the CENTER OF MASS  = ( 0.000461, -0.000000  0.000000)
             <<<Displacing   4/coordinate 1 (-)>>>
The origin for moment calculation is the CENTER OF MASS  = (-0.000461, -0.000000  0.000000)
             <<<Displacing   4/coordinate 2 (+)>>>
The origin for moment calculation is the CENTER OF MASS  = ( 0.000000,  0.000461  0.000000)
             <<<Displacing   4/coordinate 2 (-)>>>
The origin for moment calculation is the CENTER OF MASS  = ( 0.000000, -0.000461  0.000000)
             <<<Displacing   4/coordinate 3 (+)>>>
The origin for moment calculation is the CENTER OF MASS  = ( 0.000000, -0.000000  0.000461)
             <<<Displacing   4/coordinate 3 (-)>>>
The origin for moment calculation is the CENTER OF MASS  = ( 0.000000, -0.000000 -0.000461)
             <<<Displacing   5/coordinate 1 (+)>>>
The origin for moment calculation is the CENTER OF MASS  = ( 0.000461, -0.000000  0.000000)
             <<<Displacing   5/coordinate 1 (-)>>>
The origin for moment calculation is the CENTER OF MASS  = (-0.000461, -0.000000  0.000000)
             <<<Displacing   5/coordinate 2 (+)>>>
The origin for moment calculation is the CENTER OF MASS  = ( 0.000000,  0.000461  0.000000)
             <<<Displacing   5/coordinate 2 (-)>>>
The origin for moment calculation is the CENTER OF MASS  = ( 0.000000, -0.000461  0.000000)
             <<<Displacing   5/coordinate 3 (+)>>>
The origin for moment calculation is the CENTER OF MASS  = ( 0.000000, -0.000000  0.000461)
             <<<Displacing   5/coordinate 3 (-)>>>
The origin for moment calculation is the CENTER OF MASS  = ( 0.000000, -0.000000 -0.000461)
             <<<Displacing   6/coordinate 1 (+)>>>
The origin for moment calculation is the CENTER OF MASS  = ( 0.000461, -0.000000  0.000000)
             <<<Displacing   6/coordinate 1 (-)>>>
The origin for moment calculation is the CENTER OF MASS  = (-0.000461, -0.000000  0.000000)
             <<<Displacing   6/coordinate 2 (+)>>>
The origin for moment calculation is the CENTER OF MASS  = ( 0.000000,  0.000461  0.000000)
             <<<Displacing   6/coordinate 2 (-)>>>
The origin for moment calculation is the CENTER OF MASS  = ( 0.000000, -0.000461  0.000000)
             <<<Displacing   6/coordinate 3 (+)>>>
The origin for moment calculation is the CENTER OF MASS  = ( 0.000000, -0.000000  0.000461)
             <<<Displacing   6/coordinate 3 (-)>>>
The origin for moment calculation is the CENTER OF MASS  = ( 0.000000, -0.000000 -0.000461)
             <<<Displacing   7/coordinate 1 (+)>>>
The origin for moment calculation is the CENTER OF MASS  = ( 0.000039, -0.000000  0.000000)
             <<<Displacing   7/coordinate 1 (-)>>>
The origin for moment calculation is the CENTER OF MASS  = (-0.000039, -0.000000  0.000000)
             <<<Displacing   7/coordinate 2 (+)>>>
The origin for moment calculation is the CENTER OF MASS  = ( 0.000000,  0.000039  0.000000)
             <<<Displacing   7/coordinate 2 (-)>>>
The origin for moment calculation is the CENTER OF MASS  = ( 0.000000, -0.000039  0.000000)
             <<<Displacing   7/coordinate 3 (+)>>>
The origin for moment calculation is the CENTER OF MASS  = ( 0.000000, -0.000000  0.000039)
             <<<Displacing   7/coordinate 3 (-)>>>
The origin for moment calculation is the CENTER OF MASS  = ( 0.000000, -0.000000 -0.000039)
             <<<Displacing   8/coordinate 1 (+)>>>
The origin for moment calculation is the CENTER OF MASS  = ( 0.000039, -0.000000  0.000000)
             <<<Displacing   8/coordinate 1 (-)>>>
The origin for moment calculation is the CENTER OF MASS  = (-0.000039, -0.000000  0.000000)
             <<<Displacing   8/coordinate 2 (+)>>>
The origin for moment calculation is the CENTER OF MASS  = ( 0.000000,  0.000039  0.000000)
             <<<Displacing   8/coordinate 2 (-)>>>
The origin for moment calculation is the CENTER OF MASS  = ( 0.000000, -0.000039  0.000000)
             <<<Displacing   8/coordinate 3 (+)>>>
The origin for moment calculation is the CENTER OF MASS  = ( 0.000000, -0.000000  0.000039)
             <<<Displacing   8/coordinate 3 (-)>>>
The origin for moment calculation is the CENTER OF MASS  = ( 0.000000, -0.000000 -0.000039)
             <<<Displacing   9/coordinate 1 (+)>>>
The origin for moment calculation is the CENTER OF MASS  = ( 0.000039, -0.000000  0.000000)
             <<<Displacing   9/coordinate 1 (-)>>>
The origin for moment calculation is the CENTER OF MASS  = (-0.000039, -0.000000  0.000000)
             <<<Displacing   9/coordinate 2 (+)>>>
The origin for moment calculation is the CENTER OF MASS  = ( 0.000000,  0.000039  0.000000)
             <<<Displacing   9/coordinate 2 (-)>>>
The origin for moment calculation is the CENTER OF MASS  = ( 0.000000, -0.000039  0.000000)
             <<<Displacing   9/coordinate 3 (+)>>>
The origin for moment calculation is the CENTER OF MASS  = ( 0.000000, -0.000000  0.000039)
             <<<Displacing   9/coordinate 3 (-)>>>
The origin for moment calculation is the CENTER OF MASS  = ( 0.000000, -0.000000 -0.000039)
             <<<Displacing  10/coordinate 1 (+)>>>
The origin for moment calculation is the CENTER OF MASS  = ( 0.000039, -0.000000  0.000000)
             <<<Displacing  10/coordinate 1 (-)>>>
The origin for moment calculation is the CENTER OF MASS  = (-0.000039, -0.000000  0.000000)
             <<<Displacing  10/coordinate 2 (+)>>>
The origin for moment calculation is the CENTER OF MASS  = ( 0.000000,  0.000039  0.000000)
             <<<Displacing  10/coordinate 2 (-)>>>
The origin for moment calculation is the CENTER OF MASS  = ( 0.000000, -0.000039  0.000000)
             <<<Displacing  10/coordinate 3 (+)>>>
The origin for moment calculation is the CENTER OF MASS  = ( 0.000000, -0.000000  0.000039)
             <<<Displacing  10/coordinate 3 (-)>>>
The origin for moment calculation is the CENTER OF MASS  = ( 0.000000, -0.000000 -0.000039)
             <<<Displacing  11/coordinate 1 (+)>>>
The origin for moment calculation is the CENTER OF MASS  = ( 0.000461, -0.000000  0.000000)
             <<<Displacing  11/coordinate 1 (-)>>>
The origin for moment calculation is the CENTER OF MASS  = (-0.000461, -0.000000  0.000000)
             <<<Displacing  11/coordinate 2 (+)>>>
The origin for moment calculation is the CENTER OF MASS  = ( 0.000000,  0.000461  0.000000)
             <<<Displacing  11/coordinate 2 (-)>>>
The origin for moment calculation is the CENTER OF MASS  = ( 0.000000, -0.000461  0.000000)
             <<<Displacing  11/coordinate 3 (+)>>>
The origin for moment calculation is the CENTER OF MASS  = ( 0.000000, -0.000000  0.000461)
             <<<Displacing  11/coordinate 3 (-)>>>
The origin for moment calculation is the CENTER OF MASS  = ( 0.000000, -0.000000 -0.000461)
             <<<Displacing  12/coordinate 1 (+)>>>
The origin for moment calculation is the CENTER OF MASS  = ( 0.000461, -0.000000  0.000000)
             <<<Displacing  12/coordinate 1 (-)>>>
The origin for moment calculation is the CENTER OF MASS  = (-0.000461, -0.000000  0.000000)
             <<<Displacing  12/coordinate 2 (+)>>>
The origin for moment calculation is the CENTER OF MASS  = ( 0.000000,  0.000461  0.000000)
             <<<Displacing  12/coordinate 2 (-)>>>
The origin for moment calculation is the CENTER OF MASS  = ( 0.000000, -0.000461  0.000000)
             <<<Displacing  12/coordinate 3 (+)>>>
The origin for moment calculation is the CENTER OF MASS  = ( 0.000000, -0.000000  0.000461)
             <<<Displacing  12/coordinate 3 (-)>>>
The origin for moment calculation is the CENTER OF MASS  = ( 0.000000, -0.000000 -0.000461)
             <<<Displacing  13/coordinate 1 (+)>>>
The origin for moment calculation is the CENTER OF MASS  = ( 0.000039, -0.000000  0.000000)
             <<<Displacing  13/coordinate 1 (-)>>>
The origin for moment calculation is the CENTER OF MASS  = (-0.000039, -0.000000  0.000000)
             <<<Displacing  13/coordinate 2 (+)>>>
The origin for moment calculation is the CENTER OF MASS  = ( 0.000000,  0.000039  0.000000)
             <<<Displacing  13/coordinate 2 (-)>>>
The origin for moment calculation is the CENTER OF MASS  = ( 0.000000, -0.000039  0.000000)
             <<<Displacing  13/coordinate 3 (+)>>>
The origin for moment calculation is the CENTER OF MASS  = ( 0.000000, -0.000000  0.000039)
             <<<Displacing  13/coordinate 3 (-)>>>
The origin for moment calculation is the CENTER OF MASS  = ( 0.000000, -0.000000 -0.000039)
             <<<Displacing  14/coordinate 1 (+)>>>
The origin for moment calculation is the CENTER OF MASS  = ( 0.000039, -0.000000  0.000000)
             <<<Displacing  14/coordinate 1 (-)>>>
The origin for moment calculation is the CENTER OF MASS  = (-0.000039, -0.000000  0.000000)
             <<<Displacing  14/coordinate 2 (+)>>>
The origin for moment calculation is the CENTER OF MASS  = ( 0.000000,  0.000039  0.000000)
             <<<Displacing  14/coordinate 2 (-)>>>
The origin for moment calculation is the CENTER OF MASS  = ( 0.000000, -0.000039  0.000000)
             <<<Displacing  14/coordinate 3 (+)>>>
The origin for moment calculation is the CENTER OF MASS  = ( 0.000000, -0.000000  0.000039)
             <<<Displacing  14/coordinate 3 (-)>>>
The origin for moment calculation is the CENTER OF MASS  = ( 0.000000, -0.000000 -0.000039)
             <<<Displacing  15/coordinate 1 (+)>>>
The origin for moment calculation is the CENTER OF MASS  = ( 0.000039, -0.000000  0.000000)
             <<<Displacing  15/coordinate 1 (-)>>>
The origin for moment calculation is the CENTER OF MASS  = (-0.000039, -0.000000  0.000000)
             <<<Displacing  15/coordinate 2 (+)>>>
The origin for moment calculation is the CENTER OF MASS  = ( 0.000000,  0.000039  0.000000)
             <<<Displacing  15/coordinate 2 (-)>>>
The origin for moment calculation is the CENTER OF MASS  = ( 0.000000, -0.000039  0.000000)
             <<<Displacing  15/coordinate 3 (+)>>>
The origin for moment calculation is the CENTER OF MASS  = ( 0.000000, -0.000000  0.000039)
             <<<Displacing  15/coordinate 3 (-)>>>
The origin for moment calculation is the CENTER OF MASS  = ( 0.000000, -0.000000 -0.000039)
             <<<Displacing  16/coordinate 1 (+)>>>
The origin for moment calculation is the CENTER OF MASS  = ( 0.000461, -0.000000  0.000000)
             <<<Displacing  16/coordinate 1 (-)>>>
The origin for moment calculation is the CENTER OF MASS  = (-0.000461, -0.000000  0.000000)
             <<<Displacing  16/coordinate 2 (+)>>>
The origin for moment calculation is the CENTER OF MASS  = ( 0.000000,  0.000461  0.000000)
             <<<Displacing  16/coordinate 2 (-)>>>
The origin for moment calculation is the CENTER OF MASS  = ( 0.000000, -0.000461  0.000000)
             <<<Displacing  16/coordinate 3 (+)>>>
The origin for moment calculation is the CENTER OF MASS  = ( 0.000000, -0.000000  0.000461)
             <<<Displacing  16/coordinate 3 (-)>>>
The origin for moment calculation is the CENTER OF MASS  = ( 0.000000, -0.000000 -0.000461)
             <<<Displacing  17/coordinate 1 (+)>>>
The origin for moment calculation is the CENTER OF MASS  = ( 0.000461, -0.000000  0.000000)
             <<<Displacing  17/coordinate 1 (-)>>>
The origin for moment calculation is the CENTER OF MASS  = (-0.000461, -0.000000  0.000000)
             <<<Displacing  17/coordinate 2 (+)>>>
The origin for moment calculation is the CENTER OF MASS  = ( 0.000000,  0.000461  0.000000)
             <<<Displacing  17/coordinate 2 (-)>>>
The origin for moment calculation is the CENTER OF MASS  = ( 0.000000, -0.000461  0.000000)
             <<<Displacing  17/coordinate 3 (+)>>>
The origin for moment calculation is the CENTER OF MASS  = ( 0.000000, -0.000000  0.000461)
             <<<Displacing  17/coordinate 3 (-)>>>
The origin for moment calculation is the CENTER OF MASS  = ( 0.000000, -0.000000 -0.000461)
             <<<Displacing  18/coordinate 1 (+)>>>
The origin for moment calculation is the CENTER OF MASS  = ( 0.000039, -0.000000  0.000000)
             <<<Displacing  18/coordinate 1 (-)>>>
The origin for moment calculation is the CENTER OF MASS  = (-0.000039, -0.000000  0.000000)
             <<<Displacing  18/coordinate 2 (+)>>>
The origin for moment calculation is the CENTER OF MASS  = ( 0.000000,  0.000039  0.000000)
             <<<Displacing  18/coordinate 2 (-)>>>
The origin for moment calculation is the CENTER OF MASS  = ( 0.000000, -0.000039  0.000000)
             <<<Displacing  18/coordinate 3 (+)>>>
The origin for moment calculation is the CENTER OF MASS  = ( 0.000000, -0.000000  0.000039)
             <<<Displacing  18/coordinate 3 (-)>>>
The origin for moment calculation is the CENTER OF MASS  = ( 0.000000, -0.000000 -0.000039)
             <<<Displacing  19/coordinate 1 (+)>>>
The origin for moment calculation is the CENTER OF MASS  = ( 0.000039, -0.000000  0.000000)
             <<<Displacing  19/coordinate 1 (-)>>>
The origin for moment calculation is the CENTER OF MASS  = (-0.000039, -0.000000  0.000000)
             <<<Displacing  19/coordinate 2 (+)>>>
The origin for moment calculation is the CENTER OF MASS  = ( 0.000000,  0.000039  0.000000)
             <<<Displacing  19/coordinate 2 (-)>>>
The origin for moment calculation is the CENTER OF MASS  = ( 0.000000, -0.000039  0.000000)
             <<<Displacing  19/coordinate 3 (+)>>>
The origin for moment calculation is the CENTER OF MASS  = ( 0.000000, -0.000000  0.000039)
             <<<Displacing  19/coordinate 3 (-)>>>
The origin for moment calculation is the CENTER OF MASS  = ( 0.000000, -0.000000 -0.000039)
             <<<Displacing  20/coordinate 1 (+)>>>
The origin for moment calculation is the CENTER OF MASS  = ( 0.000039, -0.000000  0.000000)
             <<<Displacing  20/coordinate 1 (-)>>>
The origin for moment calculation is the CENTER OF MASS  = (-0.000039, -0.000000  0.000000)
             <<<Displacing  20/coordinate 2 (+)>>>
The origin for moment calculation is the CENTER OF MASS  = ( 0.000000,  0.000039  0.000000)
             <<<Displacing  20/coordinate 2 (-)>>>
The origin for moment calculation is the CENTER OF MASS  = ( 0.000000, -0.000039  0.000000)
             <<<Displacing  20/coordinate 3 (+)>>>
The origin for moment calculation is the CENTER OF MASS  = ( 0.000000, -0.000000  0.000039)
             <<<Displacing  20/coordinate 3 (-)>>>
The origin for moment calculation is the CENTER OF MASS  = ( 0.000000, -0.000000 -0.000039)

-----------------------
VIBRATIONAL FREQUENCIES
-----------------------

   0:         0.00 cm**-1
   1:         0.00 cm**-1
   2:         0.00 cm**-1
   3:         0.00 cm**-1
   4:         0.00 cm**-1
   5:         0.00 cm**-1
   6:       -71.24 cm**-1 ***imaginary mode***
   7:       -63.58 cm**-1 ***imaginary mode***
   8:       187.49 cm**-1
   9:       198.68 cm**-1
  10:       300.86 cm**-1
  11:       317.68 cm**-1
  12:       403.22 cm**-1
  13:       410.80 cm**-1
  14:       455.79 cm**-1
  15:       509.32 cm**-1
  16:       580.61 cm**-1
  17:       655.91 cm**-1
  18:       679.99 cm**-1
  19:       717.15 cm**-1
  20:       723.83 cm**-1
  21:       811.63 cm**-1
  22:       868.92 cm**-1
  23:       912.69 cm**-1
  24:       922.21 cm**-1
  25:      1015.86 cm**-1
  26:      1015.93 cm**-1
  27:      1038.04 cm**-1
  28:      1056.78 cm**-1
  29:      1091.07 cm**-1
  30:      1103.75 cm**-1
  31:      1103.93 cm**-1
  32:      1108.07 cm**-1
  33:      1109.62 cm**-1
  34:      1231.20 cm**-1
  35:      1266.61 cm**-1
  36:      1266.90 cm**-1
  37:      1300.04 cm**-1
  38:      1392.53 cm**-1
  39:      1394.86 cm**-1
  40:      1433.13 cm**-1
  41:      1459.36 cm**-1
  42:      1541.91 cm**-1
  43:      1576.72 cm**-1
  44:      1592.34 cm**-1
  45:      1671.83 cm**-1
  46:      1784.09 cm**-1
  47:      1792.80 cm**-1
  48:      1870.12 cm**-1
  49:      1874.56 cm**-1
  50:      3382.40 cm**-1
  51:      3383.16 cm**-1
  52:      3432.21 cm**-1
  53:      3435.02 cm**-1
  54:      3450.68 cm**-1
  55:      3451.68 cm**-1
  56:      3459.33 cm**-1
  57:      3459.61 cm**-1
  58:      3518.31 cm**-1
  59:      3518.34 cm**-1


------------
NORMAL MODES
------------

These modes are the cartesian displacements weighted by the diagonal matrix
M(i,i)=1/sqrt(m[i]) where m[i] is the mass of the displaced atom
Thus, these vectors are normalized but *not* orthogonal

                  0          1          2          3          4          5    
      0       0.000000   0.000000   0.000000   0.000000   0.000000   0.000000
      1       0.000000   0.000000   0.000000   0.000000   0.000000   0.000000
      2       0.000000   0.000000   0.000000   0.000000   0.000000   0.000000
      3       0.000000   0.000000   0.000000   0.000000   0.000000   0.000000
      4       0.000000   0.000000   0.000000   0.000000   0.000000   0.000000
      5       0.000000   0.000000   0.000000   0.000000   0.000000   0.000000
      6       0.000000   0.000000   0.000000   0.000000   0.000000   0.000000
      7       0.000000   0.000000   0.000000   0.000000   0.000000   0.000000
      8       0.000000   0.000000   0.000000   0.000000   0.000000   0.000000
      9       0.000000   0.000000   0.000000   0.000000   0.000000   0.000000
     10       0.000000   0.000000   0.000000   0.000000   0.000000   0.000000
     11       0.000000   0.000000   0.000000   0.000000   0.000000   0.000000
     12       0.000000   0.000000   0.000000   0.000000   0.000000   0.000000
     13       0.000000   0.000000   0.000000   0.000000   0.000000   0.000000
     14       0.000000   0.000000   0.000000   0.000000   0.000000   0.000000
     15       0.000000   0.000000   0.000000   0.000000   0.000000   0.000000
     16       0.000000   0.000000   0.000000   0.000000   0.000000   0.000000
     17       0.000000   0.000000   0.000000   0.000000   0.000000   0.000000
     18       0.000000   0.000000   0.000000   0.000000   0.000000   0.000000
     19       0.000000   0.000000   0.000000   0.000000   0.000000   0.000000
     20       0.000000   0.000000   0.000000   0.000000   0.000000   0.000000
     21       0.000000   0.000000   0.000000   0.000000   0.000000   0.000000
     22       0.000000   0.000000   0.000000   0.000000   0.000000   0.000000
     23       0.000000   0.000000   0.000000   0.000000   0.000000   0.000000
     24       0.000000   0.000000   0.000000   0.000000   0.000000   0.000000
     25       0.000000   0.000000   0.000000   0.000000   0.000000   0.000000
     26       0.000000   0.000000   0.000000   0.000000   0.000000   0.000000
     27       0.000000   0.000000   0.000000   0.000000   0.000000   0.000000
     28       0.000000   0.000000   0.000000   0.000000   0.000000   0.000000
     29       0.000000   0.000000   0.000000   0.000000   0.000000   0.000000
     30       0.000000   0.000000   0.000000   0.000000   0.000000   0.000000
     31       0.000000   0.000000   0.000000   0.000000   0.000000   0.000000
     32       0.000000   0.000000   0.000000   0.000000   0.000000   0.000000
     33       0.000000   0.000000   0.000000   0.000000   0.000000   0.000000
     34       0.000000   0.000000   0.000000   0.000000   0.000000   0.000000
     35       0.000000   0.000000   0.000000   0.000000   0.000000   0.000000
     36       0.000000   0.000000   0.000000   0.000000   0.000000   0.000000
     37       0.000000   0.000000   0.000000   0.000000   0.000000   0.000000
     38       0.000000   0.000000   0.000000   0.000000   0.000000   0.000000
     39       0.000000   0.000000   0.000000   0.000000   0.000000   0.000000
     40       0.000000   0.000000   0.000000   0.000000   0.000000   0.000000
     41       0.000000   0.000000   0.000000   0.000000   0.000000   0.000000
     42       0.000000   0.000000   0.000000   0.000000   0.000000   0.000000
     43       0.000000   0.000000   0.000000   0.000000   0.000000   0.000000
     44       0.000000   0.000000   0.000000   0.000000   0.000000   0.000000
     45       0.000000   0.000000   0.000000   0.000000   0.000000   0.000000
     46       0.000000   0.000000   0.000000   0.000000   0.000000   0.000000
     47       0.000000   0.000000   0.000000   0.000000   0.000000   0.000000
     48       0.000000   0.000000   0.000000   0.000000   0.000000   0.000000
     49       0.000000   0.000000   0.000000   0.000000   0.000000   0.000000
     50       0.000000   0.000000   0.000000   0.000000   0.000000   0.000000
     51       0.000000   0.000000   0.000000   0.000000   0.000000   0.000000
     52       0.000000   0.000000   0.000000   0.000000   0.000000   0.000000
     53       0.000000   0.000000   0.000000   0.000000   0.000000   0.000000
     54       0.000000   0.000000   0.000000   0.000000   0.000000   0.000000
     55       0.000000   0.000000   0.000000   0.000000   0.000000   0.000000
     56       0.000000   0.000000   0.000000   0.000000   0.000000   0.000000
     57       0.000000   0.000000   0.000000   0.000000   0.000000   0.000000
     58       0.000000   0.000000   0.000000   0.000000   0.000000   0.000000
     59       0.000000   0.000000   0.000000   0.000000   0.000000   0.000000
                  6          7          8          9         10         11    
      0       0.000000  -0.000000  -0.000002   0.107973   0.130991  -0.000000
      1      -0.000000   0.000000   0.000000  -0.019674   0.038927   0.000000
      2       0.079548  -0.112006   0.013381  -0.000000   0.000000   0.166229
      3       0.000000  -0.000000  -0.000002   0.118228   0.062766   0.000000
      4      -0.000000  -0.000000   0.000000  -0.021092   0.106896  -0.000000
      5       0.093721   0.041111   0.098642   0.000002   0.000001   0.115864
      6       0.000000   0.000000  -0.000002   0.116685  -0.099281   0.000001
      7       0.000000  -0.000000  -0.000000  -0.004863   0.064201  -0.000000
      8       0.094731   0.155657   0.110510   0.000003  -0.000000  -0.083654
      9       0.000000   0.000000  -0.000002   0.107974  -0.130989   0.000001
     10       0.000000   0.000000   0.000000  -0.019674  -0.038926  -0.000000
     11       0.079527   0.112019   0.013380   0.000001  -0.000001  -0.166229
     12       0.000000   0.000000  -0.000002   0.118228  -0.062764   0.000000
     13      -0.000000   0.000000   0.000000  -0.021090  -0.106895   0.000000
     14       0.093729  -0.041095   0.098642   0.000002  -0.000000  -0.115865
     15       0.000000  -0.000000  -0.000002   0.116684   0.099283  -0.000000
     16      -0.000000   0.000000   0.000000  -0.004862  -0.064200   0.000000
     17       0.094760  -0.155640   0.110511   0.000003  -0.000000   0.083655
     18      -0.000000  -0.000000  -0.000002   0.119657   0.099130  -0.000000
     19      -0.000000  -0.000001  -0.000000  -0.020867   0.215793  -0.000001
     20       0.098915   0.078586   0.093365   0.000001   0.000002   0.176713
     21       0.000000   0.000000  -0.000002   0.105064  -0.158967   0.000001
     22       0.000000  -0.000000  -0.000001   0.014634   0.121915  -0.000001
     23       0.110449   0.280587   0.110589   0.000004  -0.000000  -0.099410
     24       0.000000   0.000000  -0.000002   0.119658  -0.099129   0.000001
     25      -0.000000   0.000001   0.000001  -0.020863  -0.215793   0.000001
     26       0.098930  -0.078569   0.093366   0.000002   0.000000  -0.176714
     27       0.000000  -0.000000  -0.000002   0.105062   0.158968  -0.000000
     28       0.000000   0.000000  -0.000000   0.014635  -0.121914   0.000000
     29       0.110501  -0.280567   0.110590   0.000003  -0.000000   0.099411
     30      -0.000000   0.000000   0.000001  -0.066387  -0.046462  -0.000000
     31       0.000000  -0.000000   0.000001  -0.063817  -0.030242  -0.000001
     32       0.036243   0.141760  -0.197736  -0.000005   0.000000   0.066264
     33      -0.000000  -0.000000   0.000004  -0.234707   0.123125  -0.000001
     34       0.000000   0.000000  -0.000002   0.102249  -0.202664   0.000000
     35      -0.273893  -0.164763  -0.009323  -0.000000  -0.000000   0.013558
     36      -0.000000   0.000000   0.000002  -0.108300  -0.010828  -0.000000
     37       0.000000  -0.000000   0.000003  -0.239683   0.116170  -0.000001
     38       0.222169   0.363675  -0.526878  -0.000014   0.000002   0.431191
     39      -0.000001  -0.000001   0.000007  -0.421134   0.328573  -0.000002
     40       0.000000   0.000000  -0.000001   0.063415  -0.161061   0.000000
     41      -0.314377  -0.161852  -0.186215  -0.000005   0.000000   0.316423
     42       0.000000   0.000000   0.000003  -0.193276   0.077280  -0.000001
     43       0.000001   0.000001  -0.000004   0.268258  -0.377704   0.000001
     44      -0.478884  -0.413524   0.324759   0.000009  -0.000002  -0.346716
     45       0.000000  -0.000000   0.000001  -0.066388   0.046461  -0.000000
     46      -0.000000   0.000000   0.000001  -0.063817   0.030241   0.000000
     47       0.036269  -0.141755  -0.197735  -0.000005  -0.000001  -0.066264
     48      -0.000000   0.000000   0.000004  -0.234705  -0.123128  -0.000000
     49      -0.000000  -0.000000  -0.000002   0.102246   0.202664   0.000000
     50      -0.273924   0.164717  -0.009324   0.000000   0.000000  -0.013558
     51      -0.000000   0.000000   0.000002  -0.108300   0.010826  -0.000000
     52      -0.000000   0.000000   0.000005  -0.239682  -0.116175   0.000001
     53       0.222236  -0.363642  -0.526878  -0.000011  -0.000002  -0.431190
     54      -0.000001   0.000001   0.000007  -0.421129  -0.328578   0.000001
     55      -0.000000  -0.000000  -0.000001   0.063413   0.161061   0.000000
     56      -0.314406   0.161799  -0.186217  -0.000002  -0.000000  -0.316422
     57       0.000000   0.000000   0.000003  -0.193275  -0.077283  -0.000000
     58       0.000000  -0.000001  -0.000004   0.268252   0.377705  -0.000000
     59      -0.478960   0.413446   0.324758   0.000007   0.000002   0.346715
                 12         13         14         15         16         17    
      0      -0.126894   0.000002   0.000001  -0.041464   0.058230  -0.000000
      1       0.131393  -0.000002  -0.000000  -0.067978   0.114427   0.000000
      2       0.000001  -0.019750   0.201024   0.000000   0.000000  -0.048427
      3       0.007896  -0.000000   0.000000  -0.068003   0.119547  -0.000000
      4      -0.051584   0.000001   0.000000  -0.092892   0.075208   0.000001
      5      -0.000006  -0.215704  -0.088805   0.000000  -0.000000   0.126029
      6       0.144940  -0.000002  -0.000001  -0.070634  -0.021905   0.000000
      7      -0.058872   0.000001   0.000000  -0.105668   0.033533   0.000001
      8       0.000004   0.220821  -0.054395  -0.000001   0.000000  -0.121412
      9       0.126895  -0.000002  -0.000001  -0.041465  -0.058230   0.000000
     10      -0.131393   0.000002   0.000001  -0.067980  -0.114427  -0.000000
     11       0.000003  -0.019750   0.201024   0.000000  -0.000001   0.048427
     12      -0.007895  -0.000000   0.000000  -0.068005  -0.119547  -0.000000
     13       0.051584  -0.000001  -0.000000  -0.092893  -0.075207  -0.000000
     14      -0.000005  -0.215704  -0.088806   0.000000   0.000000  -0.126029
     15      -0.144940   0.000002   0.000001  -0.070634   0.021905  -0.000001
     16       0.058872  -0.000001  -0.000000  -0.105668  -0.033532  -0.000000
     17       0.000003   0.220821  -0.054394  -0.000001  -0.000000   0.121412
     18      -0.059926   0.000000   0.000001  -0.076610   0.128412  -0.000001
     19      -0.243921   0.000003   0.000002  -0.109950   0.097904   0.000001
     20      -0.000015  -0.413439  -0.303995   0.000001  -0.000002   0.166791
     21       0.141805  -0.000002  -0.000001  -0.087642  -0.159570  -0.000000
     22      -0.058467   0.000001   0.000000  -0.083115   0.186901   0.000001
     23       0.000007   0.475690  -0.248510  -0.000000   0.000002  -0.211645
     24       0.059927  -0.000001  -0.000000  -0.076613  -0.128411   0.000000
     25       0.243923  -0.000003  -0.000001  -0.109952  -0.097904   0.000000
     26      -0.000012  -0.413439  -0.303996   0.000001   0.000001  -0.166792
     27      -0.141805   0.000002   0.000001  -0.087640   0.159571  -0.000001
     28       0.058467  -0.000001  -0.000001  -0.083117  -0.186900  -0.000000
     29       0.000007   0.475690  -0.248510  -0.000001  -0.000000   0.211644
     30      -0.003456   0.000000  -0.000000   0.167927   0.172359   0.000001
     31      -0.258488   0.000003   0.000001   0.026352  -0.096600  -0.000001
     32       0.000000   0.001746   0.044878   0.000000  -0.000000   0.135403
     33      -0.074534   0.000002   0.000000   0.026106   0.025321  -0.000000
     34      -0.211580   0.000003   0.000001   0.200113   0.072006   0.000000
     35      -0.000001   0.004570  -0.026244   0.000000   0.000000  -0.023210
     36      -0.025471   0.000001  -0.000000   0.170282   0.182861   0.000001
     37      -0.368228   0.000005   0.000001   0.050225  -0.051248  -0.000001
     38      -0.000003   0.029555  -0.267560  -0.000001   0.000001  -0.212169
     39      -0.134867   0.000002   0.000001  -0.269530  -0.326402  -0.000002
     40      -0.227168   0.000003   0.000001   0.142837   0.001196  -0.000000
     41      -0.000003   0.059245  -0.374237  -0.000001   0.000002  -0.481438
     42      -0.064741   0.000002   0.000000   0.097518   0.109479   0.000000
     43      -0.159513   0.000002   0.000000   0.477502   0.419565   0.000002
     44       0.000003  -0.051955   0.283248   0.000000  -0.000002   0.314237
     45       0.003455   0.000001  -0.000001   0.167925  -0.172361  -0.000000
     46       0.258489  -0.000003  -0.000001   0.026354   0.096600   0.000000
     47       0.000002   0.001747   0.044878   0.000001   0.000000  -0.135403
     48       0.074534  -0.000001  -0.000001   0.026106  -0.025320   0.000000
     49       0.211579  -0.000002  -0.000001   0.200114  -0.072008  -0.000000
     50      -0.000000   0.004570  -0.026244   0.000000  -0.000000   0.023210
     51       0.025470   0.000000  -0.000001   0.170280  -0.182863  -0.000000
     52       0.368230  -0.000005  -0.000002   0.050227   0.051249  -0.000001
     53       0.000000   0.029557  -0.267560  -0.000002   0.000000   0.212170
     54       0.134868  -0.000003  -0.000000  -0.269528   0.326406  -0.000000
     55       0.227167  -0.000003  -0.000001   0.142838  -0.001197  -0.000000
     56      -0.000003   0.059246  -0.374237  -0.000003  -0.000000   0.481440
     57       0.064740  -0.000000  -0.000001   0.097516  -0.109479   0.000000
     58       0.159510  -0.000001  -0.000002   0.477499  -0.419570   0.000000
     59      -0.000001  -0.051956   0.283247   0.000001   0.000001  -0.314239
                 18         19         20         21         22         23    
      0       0.106617  -0.005441   0.000000  -0.000000   0.026928  -0.000000
      1       0.003516  -0.000532   0.000000   0.000000  -0.129768  -0.000000
      2      -0.000001   0.000004   0.096742   0.254856  -0.000000   0.107265
      3       0.257021  -0.074598   0.000002   0.000000  -0.229580  -0.000000
      4      -0.245744   0.131689  -0.000003  -0.000000  -0.010109  -0.000000
      5       0.000001   0.000000   0.015642  -0.098733   0.000000  -0.070141
      6      -0.160072  -0.026263   0.000000   0.000000  -0.225646  -0.000000
      7      -0.324470   0.126386  -0.000003  -0.000000  -0.074289  -0.000000
      8      -0.000001   0.000001   0.012974   0.099876   0.000000  -0.072437
      9      -0.106617  -0.005441  -0.000000   0.000000  -0.026928  -0.000000
     10      -0.003515  -0.000533  -0.000000  -0.000000   0.129768   0.000000
     11       0.000000   0.000003   0.096742  -0.254856  -0.000001   0.107265
     12      -0.257021  -0.074599   0.000001  -0.000000   0.229580   0.000000
     13       0.245744   0.131689  -0.000002   0.000000   0.010109   0.000000
[...]
     56       0.000000   0.000000  -0.000000  -0.000000   0.000000  -0.000000
     57       0.089738   0.093921  -0.479426  -0.479813   0.005747  -0.006547
     58      -0.392857  -0.370901   0.121445   0.121453   0.000121   0.002950
     59      -0.000000  -0.000000  -0.000000  -0.000000  -0.000000  -0.000000
                 54         55         56         57         58         59    
      0      -0.004507  -0.000607   0.000424   0.000874   0.000217   0.000253
      1      -0.001335   0.002787  -0.001629  -0.001296   0.000404   0.000430
      2       0.000000  -0.000000   0.000000   0.000000   0.000000   0.000000
      3       0.042506  -0.040003   0.002834  -0.005139   0.000020  -0.000131
      4      -0.016579   0.015621  -0.000906   0.001981  -0.000062   0.000067
      5      -0.000000  -0.000000   0.000000   0.000000  -0.000000  -0.000000
      6       0.032359  -0.035212   0.001531  -0.001935   0.000330  -0.000483
      7       0.031759  -0.033805   0.001940  -0.002417   0.000214  -0.000362
      8      -0.000000   0.000000   0.000000  -0.000000  -0.000000   0.000000
      9      -0.004507   0.000606  -0.000422   0.000875   0.000219  -0.000251
     10      -0.001334  -0.002787   0.001627  -0.001299   0.000407  -0.000426
     11       0.000000  -0.000000  -0.000000  -0.000000   0.000000   0.000000
     12       0.042498   0.040013  -0.002845  -0.005135   0.000019   0.000131
     13      -0.016576  -0.015625   0.000910   0.001980  -0.000061  -0.000067
     14       0.000000   0.000000   0.000000   0.000000   0.000000  -0.000000
     15       0.032350   0.035219  -0.001535  -0.001933   0.000326   0.000486
     16       0.031751   0.033811  -0.001946  -0.002414   0.000211   0.000364
     17       0.000000   0.000000  -0.000000   0.000000   0.000000   0.000000
     18      -0.469484   0.435430  -0.029516   0.058784  -0.001108   0.000766
     19       0.158440  -0.146542   0.011009  -0.018517   0.000152  -0.000272
     20       0.000000   0.000000  -0.000000   0.000000   0.000000   0.000000
     21      -0.367631   0.395167  -0.017334   0.022866  -0.006220   0.007823
     22      -0.331988   0.356001  -0.015229   0.020772  -0.005323   0.006870
     23       0.000000  -0.000000   0.000000   0.000000   0.000000  -0.000000
     24      -0.469401  -0.435542   0.029643   0.058743  -0.001100  -0.000776
     25       0.158412   0.146580  -0.011050  -0.018501   0.000149   0.000274
     26      -0.000000  -0.000000  -0.000000   0.000000  -0.000000   0.000000
     27      -0.367533  -0.395240   0.017389   0.022841  -0.006156  -0.007874
     28      -0.331900  -0.356067   0.015278   0.020750  -0.005266  -0.006913
     29       0.000000   0.000000   0.000000  -0.000000  -0.000000   0.000000
     30      -0.005332   0.003088   0.062281  -0.062230   0.007470  -0.007457
     31       0.000927  -0.000638  -0.009511   0.009464  -0.001077   0.001064
     32       0.000000   0.000000  -0.000000  -0.000000   0.000000   0.000000
     33       0.001989  -0.000478  -0.015858   0.015687   0.047133  -0.046787
     34       0.002300  -0.001385  -0.004037   0.003964  -0.051595   0.051173
     35      -0.000000  -0.000000   0.000000  -0.000000  -0.000000   0.000000
     36       0.059181  -0.035961  -0.671168   0.670323  -0.077620   0.077085
     37      -0.014416   0.009978   0.156802  -0.156651   0.016028  -0.015952
     38       0.000000  -0.000000  -0.000000   0.000000  -0.000000   0.000000
     39       0.005233  -0.002690  -0.004843   0.004532  -0.101388   0.100499
     40      -0.023543   0.013669   0.020129  -0.019109   0.498011  -0.493949
     41      -0.000000  -0.000000  -0.000000   0.000000   0.000000  -0.000000
     42      -0.025799   0.008650   0.129265  -0.128042  -0.471068   0.467258
     43       0.008080  -0.003863  -0.034520   0.034160   0.112089  -0.111172
     44      -0.000000   0.000000   0.000000  -0.000000   0.000000   0.000000
     45      -0.005335  -0.003090  -0.062386  -0.062125   0.007409   0.007517
     46       0.000928   0.000638   0.009526   0.009448  -0.001068  -0.001073
     47      -0.000000   0.000000   0.000000   0.000000  -0.000000  -0.000000
     48       0.001989   0.000479   0.015884   0.015660   0.046752   0.047168
     49       0.002300   0.001386   0.004044   0.003958  -0.051178  -0.051589
     50      -0.000000   0.000000  -0.000000  -0.000000  -0.000000  -0.000000
     51       0.059209   0.035983   0.672289   0.669194  -0.076991  -0.077712
     52      -0.014422  -0.009983  -0.157064  -0.156387   0.015898   0.016081
     53       0.000000  -0.000000  -0.000000  -0.000000  -0.000000   0.000000
     54       0.005233   0.002690   0.004851   0.004524  -0.100569  -0.101318
     55      -0.023541  -0.013672  -0.020161  -0.019076   0.493989   0.497971
     56       0.000000  -0.000000   0.000000  -0.000000   0.000000   0.000000
     57      -0.025803  -0.008658  -0.129478  -0.127824  -0.467264  -0.471063
     58       0.008080   0.003866   0.034577   0.034102   0.111184   0.112078
     59       0.000000  -0.000000  -0.000000  -0.000000  -0.000000  -0.000000


-----------
IR SPECTRUM
-----------

 Mode    freq (cm**-1)   T**2         TX         TY         TZ
-------------------------------------------------------------------
   8:       187.49    0.340173  (  0.000010   0.000013  -0.583244)
   9:       198.68    0.604879  ( -0.397421  -0.668532  -0.000007)
  10:       300.86    0.000000  (  0.000002  -0.000006   0.000003)
  11:       317.68    0.000000  ( -0.000001   0.000001   0.000002)
  12:       403.22    0.000000  (  0.000002   0.000006  -0.000016)
  13:       410.80    0.084834  (  0.000007   0.000003   0.291263)
  14:       455.79    5.237922  (  0.000008   0.000001  -2.288651)
  15:       509.32    1.003937  ( -0.288457  -0.959547  -0.000007)
  16:       580.61    0.000000  ( -0.000002   0.000007   0.000004)
  17:       655.91    0.000000  ( -0.000001  -0.000010  -0.000001)
  18:       679.99    0.000000  (  0.000007   0.000004  -0.000002)
  19:       717.15    2.929330  ( -0.126928  -1.706815  -0.000009)
  20:       723.83    0.185379  (  0.000006   0.000043  -0.430557)
  21:       811.63    0.000000  (  0.000000   0.000004   0.000001)
  22:       868.92    0.000000  ( -0.000005   0.000002  -0.000019)
  23:       912.69   26.833990  ( -0.000009   0.000004   5.180153)
  24:       922.21    0.000000  ( -0.000001   0.000000   0.000062)
  25:      1015.86    0.000000  (  0.000002   0.000007  -0.000177)
  26:      1015.93   35.983554  ( -0.000003  -0.000001   5.998629)
  27:      1038.04    0.000000  (  0.000005   0.000006  -0.000008)
  28:      1056.78    0.028534  ( -0.000012  -0.000009  -0.168919)
  29:      1091.07    8.258991  (  0.626495  -2.804727   0.000063)
  30:      1103.75   15.567232  ( -0.000011   0.000061  -3.945533)
  31:      1103.93    0.000008  (  0.000004  -0.000034  -0.002847)
  32:      1108.07    3.835994  ( -0.334429   1.929806   0.000213)
  33:      1109.62    0.000000  ( -0.000066   0.000397  -0.000223)
  34:      1231.20    0.714654  ( -0.677696  -0.505353   0.000001)
  35:      1266.61    0.000000  (  0.000518  -0.000087   0.000001)
  36:      1266.90    0.599223  (  0.761162  -0.140910   0.000000)
  37:      1300.04    0.000000  ( -0.000012   0.000025  -0.000001)
  38:      1392.53    0.000000  (  0.000012  -0.000213   0.000005)
  39:      1394.86   16.622712  ( -0.246497   4.069638  -0.000001)
  40:      1433.13    0.000000  ( -0.000001  -0.000015  -0.000005)
  41:      1459.36    0.160493  ( -0.398700  -0.039130  -0.000001)
  42:      1541.91   16.843356  (  4.096200  -0.253978  -0.000002)
  43:      1576.72    0.000000  ( -0.000014  -0.000009   0.000001)
  44:      1592.34    2.318338  (  0.533301   1.426159   0.000001)
  45:      1671.83   18.027262  (  0.759058  -4.177451   0.000002)
  46:      1784.09    0.000000  (  0.000003  -0.000005  -0.000000)
  47:      1792.80    0.000000  ( -0.000005   0.000003  -0.000000)
  48:      1870.12    1.994891  ( -1.218881  -0.713597  -0.000000)
  49:      1874.56    0.000000  (  0.000004   0.000004   0.000001)
  50:      3382.40   60.652269  ( -2.473852  -7.384601  -0.000000)
  51:      3383.16    0.000001  ( -0.000332  -0.001004  -0.000000)
  52:      3432.21    2.573695  ( -1.046882  -1.215620   0.000000)
  53:      3435.02    0.000000  ( -0.000098  -0.000099  -0.000000)
  54:      3450.68    1.063500  ( -0.989697  -0.289829   0.000001)
  55:      3451.68    0.000000  ( -0.000108   0.000007  -0.000001)
  56:      3459.33    0.000006  (  0.000137   0.002455  -0.000000)
  57:      3459.61    8.549235  (  0.132518   2.920903   0.000000)
  58:      3518.31    0.302479  (  0.021256  -0.549570   0.000000)
  59:      3518.34    0.000005  (  0.000090  -0.002231   0.000000)

--------------
RAMAN SPECTRUM
--------------

 Mode    freq (cm**-1)   Activity   Depolarization
-------------------------------------------------------------------
   8:       187.49      0.000000      0.564288
   9:       198.68      0.000000      0.430037
  10:       300.86      5.207606      0.400887
  11:       317.68      2.016248      0.750000
  12:       403.22      0.968414      0.164513
  13:       410.80      0.000000      0.206282
  14:       455.79      0.000000      0.362025
  15:       509.32      0.000000      0.316196
  16:       580.61      7.538614      0.355077
  17:       655.91     11.812512      0.750000
  18:       679.99      5.967197      0.742762
  19:       717.15      0.000000      0.693769
  20:       723.83      0.000000      0.548009
  21:       811.63     11.375703      0.750000
  22:       868.92      8.107067      0.679287
  23:       912.69      0.000000      0.743223
  24:       922.21      5.151186      0.750000
  25:      1015.86      1.095916      0.750000
  26:      1015.93      0.000000      0.749717
  27:      1038.04      3.989815      0.750000
  28:      1056.78      0.000000      0.722723
  29:      1091.07      0.000000      0.724455
  30:      1103.75      0.000001      0.731442
  31:      1103.93      1.159883      0.750000
  32:      1108.07      0.000001      0.480571
  33:      1109.62     12.541515      0.460073
  34:      1231.20      0.000000      0.190876
  35:      1266.61    199.650648      0.233831
  36:      1266.90      0.000094      0.235048
  37:      1300.04     25.961191      0.479732
  38:      1392.53     22.851680      0.740651
  39:      1394.86      0.000000      0.746282
  40:      1433.13      5.196123      0.180604
  41:      1459.36      0.000000      0.227028
  42:      1541.91      0.000000      0.503022
  43:      1576.72    207.553836      0.329530
  44:      1592.34      0.000000      0.331735
  45:      1671.83      0.000000      0.329492
  46:      1784.09    580.853148      0.408375
  47:      1792.80     19.435633      0.407047
  48:      1870.12      0.000000      0.269589
  49:      1874.56    250.666137      0.262157
  50:      3382.40      0.000001      0.174870
  51:      3383.16     81.720293      0.175817
  52:      3432.21      0.000000      0.657554
  53:      3435.02     57.023211      0.727518
  54:      3450.68      0.000001      0.191865
  55:      3451.68    121.960764      0.178627
  56:      3459.33     80.322723      0.343278
  57:      3459.61      0.000058      0.342263
  58:      3518.31      0.002038      0.548906
  59:      3518.34    123.953141      0.548786

The first frequency considered to be a vibration is 8
The total number of vibrations considered is 52


--------------------------
THERMOCHEMISTRY AT 298.15K
--------------------------

Temperature         ... 298.15 K
Pressure            ... 1.00 atm
Total Mass          ... 130.19 AMU

Throughout the following assumptions are being made:
  (1) The electronic state is orbitally nondegenerate
  (2) There are no thermally accessible electronically excited states
  (3) Hindered rotations indicated by low frequency modes are not
      treated as such but are treated as vibrations and this may
      cause some error
  (4) All equations used are the standard statistical mechanics
      equations for an ideal gas
  (5) All vibrations are strictly harmonic

freq.     187.49  E(vib)   ...       0.36 
freq.     198.68  E(vib)   ...       0.35 
freq.     300.86  E(vib)   ...       0.26 
freq.     317.68  E(vib)   ...       0.25 
freq.     403.22  E(vib)   ...       0.19 
freq.     410.80  E(vib)   ...       0.19 
freq.     455.79  E(vib)   ...       0.16 
freq.     509.32  E(vib)   ...       0.14 
freq.     580.61  E(vib)   ...       0.11 
freq.     655.91  E(vib)   ...       0.08 
freq.     679.99  E(vib)   ...       0.08 
freq.     717.15  E(vib)   ...       0.07 
freq.     723.83  E(vib)   ...       0.06 
freq.     811.63  E(vib)   ...       0.05 
freq.     868.92  E(vib)   ...       0.04 
freq.     912.69  E(vib)   ...       0.03 
freq.     922.21  E(vib)   ...       0.03 
freq.    1015.86  E(vib)   ...       0.02 
freq.    1015.93  E(vib)   ...       0.02 
freq.    1038.04  E(vib)   ...       0.02 
freq.    1056.78  E(vib)   ...       0.02 
freq.    1091.07  E(vib)   ...       0.02 
freq.    1103.75  E(vib)   ...       0.02 
freq.    1103.93  E(vib)   ...       0.02 
freq.    1108.07  E(vib)   ...       0.02 
freq.    1109.62  E(vib)   ...       0.02 
freq.    1231.20  E(vib)   ...       0.01 
freq.    1266.61  E(vib)   ...       0.01 
freq.    1266.90  E(vib)   ...       0.01 
freq.    1300.04  E(vib)   ...       0.01 
freq.    1392.53  E(vib)   ...       0.00 
freq.    1394.86  E(vib)   ...       0.00 
freq.    1433.13  E(vib)   ...       0.00 
freq.    1459.36  E(vib)   ...       0.00 
freq.    1541.91  E(vib)   ...       0.00 
freq.    1576.72  E(vib)   ...       0.00 
freq.    1592.34  E(vib)   ...       0.00 
freq.    1671.83  E(vib)   ...       0.00 
freq.    1784.09  E(vib)   ...       0.00 
freq.    1792.80  E(vib)   ...       0.00 
freq.    1870.12  E(vib)   ...       0.00 
freq.    1874.56  E(vib)   ...       0.00 
freq.    3382.40  E(vib)   ...       0.00 
freq.    3383.16  E(vib)   ...       0.00 
freq.    3432.21  E(vib)   ...       0.00 
freq.    3435.02  E(vib)   ...       0.00 
freq.    3450.68  E(vib)   ...       0.00 
freq.    3451.68  E(vib)   ...       0.00 
freq.    3459.33  E(vib)   ...       0.00 
freq.    3459.61  E(vib)   ...       0.00 
freq.    3518.31  E(vib)   ...       0.00 
freq.    3518.34  E(vib)   ...       0.00 

------------
INNER ENERGY
------------

The inner energy is: U= E(el) + E(ZPE) + E(vib) + E(rot) + E(trans)
    E(el)   - is the total energy from the electronic structure calculation
              = E(kin-el) + E(nuc-el) + E(el-el) + E(nuc-nuc)
    E(ZPE)  - the the zero temperature vibrational energy from the frequency calculation
    E(vib)  - the the finite temperature correction to E(ZPE) due to population
              of excited vibrational states
    E(rot)  - is the rotational thermal energy
    E(trans)- is the translational thermal energy

Summary of contributions to the inner energy U:
Electronic energy                ...   -382.04272537 Eh
Zero point energy                ...      0.17824278 Eh     111.85 kcal/mol
Thermal vibrational correction   ...      0.00426389 Eh       2.68 kcal/mol
Thermal rotational correction    ...      0.00141627 Eh       0.89 kcal/mol
Thermal translational correction ...      0.00141627 Eh       0.89 kcal/mol
-----------------------------------------------------------------------
Total thermal energy                   -381.85738615 Eh


Summary of corrections to the electronic energy:
(perhaps to be used in another calculation)
Total thermal correction                  0.00709644 Eh       4.45 kcal/mol
Non-thermal (ZPE) correction              0.17824278 Eh     111.85 kcal/mol
-----------------------------------------------------------------------
Total correction                          0.18533922 Eh     116.30 kcal/mol


--------
ENTHALPY
--------

The enthalpy is H = U + kB*T
                kB is Boltzmann's constant
Total free energy                 ...   -381.85738615 Eh 
Thermal Enthalpy correction       ...      0.00094421 Eh       0.59 kcal/mol
-----------------------------------------------------------------------
Total Enthalpy                    ...   -381.85644194 Eh


Vibrational entropy computed according to the QRRHO of S. Grimme
Chem.Eur.J. 2012 18 9955


-------
ENTROPY
-------

The entropy contributions are T*S = T*(S(el)+S(vib)+S(rot)+S(trans)
     S(el)   - electronic entropy
     S(vib)  - vibrational entropy
     S(rot)  - rotational entropy
     S(trans)- translational entropy
The entropies will be listed as mutliplied by the temperature to get
units of energy

Electronic entropy                ...      0.00000000 Eh      0.00 kcal/mol
Vibrational entropy               ...      0.00649559 Eh      4.08 kcal/mol
Rotational entropy                ...      0.01296357 Eh      8.13 kcal/mol
Translational entropy             ...      0.01924489 Eh     12.08 kcal/mol
-----------------------------------------------------------------------
Final entropy term                ...      0.03870405 Eh     24.29 kcal/mol


CAUTION: The rotational entropy is not quite correctly treated here
         because it includes a symmetry number that is not yet correctly
         implemented in ORCA!
For a nonlinear molecule the correct rotational entropy is:
    S(rot) = R*(ln(qrot/sn)+1.5)
    R    = 8.31441 J/mol/K = 1.987191683e-3 kcal/mol/K
    qrot = 614508.3865973
    sn is the rotational symmetry number. We have assumed 3 here
       if it is different for your molecule then you should correct
       the printed rotational entropy by manually evaluating the equation
       as given above

For convenience we print out the resulting values for sn=1 - 12:
 sn= 1  qrot/sn=  614508.3866 T*S(rot)=     8.79 kcal/mol T*S(tot)=    24.94 kcal/mol
 sn= 2  qrot/sn=  307254.1933 T*S(rot)=     8.37 kcal/mol T*S(tot)=    24.53 kcal/mol
 sn= 3  qrot/sn=  204836.1289 T*S(rot)=     8.13 kcal/mol T*S(tot)=    24.29 kcal/mol
 sn= 4  qrot/sn=  153627.0966 T*S(rot)=     7.96 kcal/mol T*S(tot)=    24.12 kcal/mol
 sn= 5  qrot/sn=  122901.6773 T*S(rot)=     7.83 kcal/mol T*S(tot)=    23.98 kcal/mol
 sn= 6  qrot/sn=  102418.0644 T*S(rot)=     7.72 kcal/mol T*S(tot)=    23.88 kcal/mol
 sn= 7  qrot/sn=   87786.9124 T*S(rot)=     7.63 kcal/mol T*S(tot)=    23.79 kcal/mol
 sn= 8  qrot/sn=   76813.5483 T*S(rot)=     7.55 kcal/mol T*S(tot)=    23.71 kcal/mol
 sn= 9  qrot/sn=   68278.7096 T*S(rot)=     7.48 kcal/mol T*S(tot)=    23.64 kcal/mol
 sn=10  qrot/sn=   61450.8387 T*S(rot)=     7.42 kcal/mol T*S(tot)=    23.57 kcal/mol
 sn=11  qrot/sn=   55864.3988 T*S(rot)=     7.36 kcal/mol T*S(tot)=    23.52 kcal/mol
 sn=12  qrot/sn=   51209.0322 T*S(rot)=     7.31 kcal/mol T*S(tot)=    23.47 kcal/mol


-------------------
GIBBS FREE ENTHALPY
-------------------

The Gibbs free enthalpy is G = H - T*S

Total enthalpy                    ...   -381.85644194 Eh 
Total entropy correction          ...     -0.03870405 Eh    -24.29 kcal/mol
-----------------------------------------------------------------------
Final Gibbs free enthalpy         ...   -381.89514599 Eh

For completeness - the Gibbs free enthalpy minus the electronic energy
G-E(el)                           ...      0.14757937 Eh     92.61 kcal/mol


Total Time for Numerical Frequencies  :      4139.488 sec
Time for Reference State(s)           :        31.496 sec
Time for Displacements                :      4107.355 sec

Timings for individual modules:

Sum of individual times         ...       73.244 sec (=   1.221 min)
GTO integral calculation        ...        0.711 sec (=   0.012 min)   1.0 %
SCF iterations                  ...       15.118 sec (=   0.252 min)  20.6 %
Solution of CP-SCF eqns.        ...       34.114 sec (=   0.569 min)  46.6 %
SCF Gradient evaluation         ...       23.302 sec (=   0.388 min)  31.8 %
                             ****ORCA TERMINATED NORMALLY****
TOTAL RUN TIME: 0 days 1 hours 9 minutes 41 seconds 640 msec
